104
Lattice="6.8064 0.0 0.0 -4.110446609 6.204676621 0.0 0.625289135 0.845051123 28.212521555000002" Properties=species:S:1:pos:R:3:forces:R:3 energy=-655.51575629 pbc="T T T"
Ca      -6.33533877       5.91814065      21.93117453      -0.00105108       0.00116464      -0.00059417
Ca      -6.11791696       6.00045198      13.98462469      -0.00039365       0.00092328       0.00051089
Ca      -4.41045073       2.73501056      21.98155556      -0.00001521       0.00135414      -0.00098088
Ca      -3.43255732       5.70591072       7.82740971       0.00116285       0.00023401       0.00052677
Ca      -2.86537276       5.93661979      19.94961106       0.00084456      -0.00102771       0.00045609
Ca      -1.45144507       2.53458007       7.88124480       0.00054983       0.00043278       0.00006754
Ca      -1.20318192       2.45589131      -0.11504502       0.00081259      -0.00041116      -0.00018969
Ca      -0.69884813       2.93177471      19.84970771       0.00019737      -0.00093428       0.00275466
Ca      -0.05393199       5.66339766       5.82268828       0.00172327      -0.00076817       0.00044606
Ca       2.09346189       2.62710330       5.91813234       0.00077390       0.00043355      -0.00004112
Si      -6.31347442       6.25282648      18.88592920       0.00056371       0.00096173       0.00050196
Si      -4.45681446       4.85651436      16.80269581      -0.00011757       0.00160437      -0.00020015
Si      -3.56252419       5.96314731       4.74290493       0.00089166      -0.00037175      -0.00084948
Si      -3.93534551       2.62595471      18.81674251       0.00040102      -0.00048938      -0.00092957
Si      -3.16877971       1.46181070      11.06205555       0.00012095      -0.00025941       0.00029955
Si      -2.82739284       5.60248682      23.11530585      -0.00049493      -0.00005356      -0.00000477
Si      -1.70728620       4.58505264       2.67608736       0.00093247      -0.00139161      -0.00104895
Si      -1.16237783       2.36280225       4.80801498      -0.00063811      -0.00068118      -0.00086173
Si      -1.14745090       2.99957201      23.02982237      -0.00143514      -0.00018634       0.00066326
Si       0.04446139       5.43727720       8.91889473       0.00081670      -0.00003103       0.00056250
Si       0.69724897       1.64965904      25.16594970      -0.00008388       0.00056407       0.00065706
Si       1.78266676       2.85686768       9.04458968      -0.00011386      -0.00012435       0.00104499
O       -7.31049541       7.48442859      12.63963708      -0.00006246      -0.00029864      -0.00111645
O       -5.77710728       6.36062206       8.02993661       0.00055765      -0.00033555       0.00094862
O       -6.09496908       6.01889324      24.51412188       0.00052434       0.00066736      -0.00015368
O       -5.64251064       2.93529293       0.62809693       0.00102826       0.00243617      -0.00153094
O       -5.74595763       5.54889631      17.51793799       0.00208151       0.00209164      -0.00007946
O       -4.51660185       4.98462524       5.61745098       0.00117869      -0.00082563      -0.00003600
O       -5.10675306       6.77120371      19.83837719       0.00032939       0.00149305       0.00208687
O       -4.58539961       2.82883570       3.30809778      -0.00030106      -0.00341816       0.00118278
O       -4.47045582       7.24233823       4.19153506       0.00036325      -0.00207743       0.00010169
O       -4.60714308       4.87802020      15.21026722       0.00075773       0.00170382       0.00000514
O       -4.16902630       6.78923561      12.59780794       0.00146858       0.00607968       0.00116028
O       -3.80488087       3.33570995       8.07635244       0.00031893       0.00055173       0.00023658
O       -4.42562964       3.29524494      17.36504863       0.00035335       0.00125875      -0.00012280
O       -4.13333417       5.07805189      22.30723505      -0.00054999       0.00075143      -0.00056610
O       -3.09907384       5.24299311       3.31735583       0.00035098       0.00033843       0.00024948
O       -3.15912729       5.38888129      10.45564091      -0.00011015      -0.00098254       0.00123839
O       -4.19074931       5.06947028       0.16401532      -0.00121523      -0.00198242      -0.00054299
O       -2.84093192       3.48830349      14.01635014      -0.00008816      -0.00199956      -0.00112801
O       -2.99614849       3.60272579      19.69696152       0.00113776      -0.00118506       0.00008411
O       -2.44483148       1.86980860       5.68044420      -0.00041106      -0.00051543      -0.00045923
O       -2.32388196       6.47475217       5.66100075       0.00097106       0.00042272      -0.00014042
O       -3.24142446       6.32454728      24.56289727       0.00031594      -0.00039125       0.00099980
O       -3.50149062       1.54544986      -0.48337798       0.00232168      -0.00495005      -0.00357527
O       -3.11773789       5.67988505      17.38301531      -0.00056459       0.00168867       0.00075669
O       -3.05890088       1.32783447      18.23844484      -0.00109772      -0.00037966      -0.00074529
O       -2.11157143       1.55440950      15.65499168      -0.00035261       0.00077450       0.00043432
O       -1.82425035       2.29974716      10.48445235       0.00253623      -0.00043493       0.00198080
O       -1.60856597       3.11580626       3.41777075       0.00064860      -0.00231986       0.00072338
O       -1.79755391       4.38616091       1.09822396       0.00112438      -0.00140190      -0.00001539
O       -2.17950522       2.04583663      22.24161520      -0.00120320      -0.00132465      -0.00014121
O       -1.92086286       6.54456458      22.15084621      -0.00099973       0.00151006       0.00083174
O       -1.19794720       4.90260138       8.02778844       0.00105723      -0.00020447      -0.00049514
O       -1.93817722       4.31330876      23.67573074      -0.00172638      -0.00150289      -0.00090205
O       -0.43793934       5.50695696       3.25381206       0.00112153       0.00032725      -0.00022447
O       -0.19257613       3.26186621       5.74496156       0.00002419      -0.00110176      -0.00028760
O       -1.04293789       4.96433966      15.31636340      -0.00151398       0.00029151       0.00076820
O       -1.30188124       0.64704695       1.62252618       0.00000568      -0.00107122       0.00016348
O       -0.54660614       6.20966456      10.27369111      -0.00081090      -0.00001406      -0.00070786
O       -0.50586727       5.30641502      19.74018757       0.00124063       0.00003435       0.00066858
O       -0.86916232       4.72788481      26.25278211       0.00166300       0.00163446       0.00144629
O       -0.40940567       2.96226227      17.26914091       0.00016163      -0.00057601      -0.00028282
O       -0.65110819       2.23214589      24.41599955       0.00116972      -0.00040199      -0.00051986
O        0.09200577       3.47980149      22.09116698      -0.00125493       0.00029756      -0.00099076
O        0.83883923       1.80297219       8.26728714       0.00045550       0.00061570       0.00000307
O        0.78072701       4.13302507      12.41233616      -0.00356452       0.00112043      -0.00015696
O        0.86028041       4.14708079       9.57835771      -0.00020595      -0.00070811       0.00041317
O        0.51022468       1.71247541      26.74828238      -0.00095275      -0.00027212      -0.00047423
O        1.59801914       2.12556366      19.69634751       0.00015279      -0.00036203      -0.00052680
O        2.36873259       2.34965678      10.51417844      -0.00050483       0.00011457      -0.00034588
O        1.98549131       2.55198289      24.55986369      -0.00240536       0.00084825      -0.00125033
H       -8.43554246       8.20150158      -0.14314500      -0.00112790      -0.00398501       0.00103815
H       -5.90398603       6.98867927      24.59312021       0.00051904      -0.00041104      -0.00011165
H       -5.45924683       2.82973915       1.59515535      -0.00009147      -0.00041973       0.00182980
H       -4.25988095       3.76444177       3.27392291      -0.00099350       0.00755359       0.00003600
H       -5.17566589       3.80800159       0.38753644      -0.00240020      -0.00090105       0.00214310
H       -5.18836565       5.64068725      24.57052478      -0.00203749       0.00079559      -0.00142748
H       -4.89521897       6.09737951       1.16819939       0.00071233      -0.00130484       0.00146679
H       -3.65629938       3.97655063      14.40747815       0.00062894       0.00178844      -0.00138526
H       -3.76958914       2.31750359       3.13084216      -0.00072675      -0.00162192      -0.00045849
H       -3.86779207       6.25310383      11.81005673       0.00027623      -0.00171545      -0.00265392
H       -4.11346400       2.74282918      25.19980066       0.00104418       0.00243013       0.00171362
H       -4.14615584       5.76366452      -0.59138622       0.00221387       0.00209550       0.00088816
H       -3.07832355       2.72199490      13.39902199      -0.00195916       0.00060736      -0.00108383
H       -3.20099503       4.42253807      10.60447263      -0.00011179       0.00130379      -0.00018445
H       -2.65570960       1.42910162      16.47629082      -0.00062905      -0.00087871      -0.00084749
H       -2.18588269       5.60318384      10.49303764       0.00114853       0.00036232      -0.00108828
H       -3.24405537       4.86828469       0.46794633       0.00038196       0.00011788       0.00302816
H       -2.46755829       2.36320293      15.16854158      -0.00029820       0.00007571       0.00037084
H       -3.03212942       1.44049360      27.89055649      -0.00235641       0.00610164      -0.00060854
H       -2.35333476       5.67001922      16.76592697       0.00007951       0.00001413      -0.00174984
H       -1.66912321       4.40639033      14.76542281       0.00007123      -0.00175434       0.00068400
H       -1.04245116       2.17087943      11.05940680      -0.00288939       0.00071328      -0.00101246
H        0.14410046       5.95268728       2.57811620      -0.00271157      -0.00008860       0.00087101
H       -0.69187163       4.35940505      16.02282773       0.00052203       0.00047507       0.00097573
H       -0.82404390       0.84277511       2.46884955       0.00090034      -0.00117153       0.00104364
H       -1.47164720       4.48115252      25.51160528      -0.00199013       0.00024745      -0.00399725
H        0.74430885       0.66704454      13.14648833      -0.00237093      -0.00528865      -0.00111387
H       -0.87402223       2.29953181      16.69267533      -0.00000745       0.00168490       0.00009786
H       -0.19791913       5.27467080      25.75985414      -0.00072663       0.00034431       0.00124992
H        0.74416398       4.18567950      11.42453976       0.00097999      -0.00182189      -0.00113543
H        0.56409353       2.82613754      17.17202686       0.00027476      -0.00071288       0.00045919
H        1.45311406       3.44530856      12.57856167       0.00270293      -0.00159278      -0.00079402
