62
Lattice="11.2714 0.0 0.0 -0.043430255 7.399172541 0.0 -0.324002368 -1.991989071 9.511957932000001" Properties=species:S:1:pos:R:3:forces:R:3 pbc="T T T"
Ca      -0.19225729      -0.54992952       4.74535618       0.00463260      -0.00083335      -0.00142195
Ca       1.57743675      -0.94395933       1.18761116       0.00116918       0.00035182       0.00124690
Ca       1.49114062       2.74839811       1.02570625      -0.00004021       0.00148711      -0.00096690
Ca       3.67233946       2.65265597       8.32348481      -0.00285526      -0.00076138      -0.00243415
Ca       3.82660725      -1.09198701       8.49698085      -0.00183345      -0.00026166      -0.00238672
Ca       5.42743773       3.14910779       4.74643173       0.00047130      -0.00023620       0.00081557
Ca       7.19112358       2.75686009       1.18803525       0.00098031      -0.00299907       0.00262938
Ca       7.14923126      -0.95025827       1.02837053       0.00114349      -0.00063224       0.00028691
Ca       9.32990700      -1.04669603       8.32062147      -0.00043122      -0.00004062       0.00235064
Ca       9.44068182       2.60717117       8.49567262      -0.00276254      -0.00126143      -0.00201313
Si       0.89013468      -2.64617296       7.48023201       0.00458083       0.00176361       0.00235198
Si       0.95115938       0.48482448       7.40259797      -0.00346163       0.00154401       0.00319699
Si       1.81427708       2.65885843       5.41371981      -0.00319135      -0.00059058       0.00286469
Si       3.44824047      -0.97834565       4.11402929      -0.00093470       0.00094227       0.00158504
Si       4.33772866       4.31855903       2.07047810      -0.00324006      -0.00237434      -0.00161434
Si       4.38869489       1.14731186       2.08077229       0.00637360       0.00061221       0.00247201
Si       6.50346648       1.05539246       7.48100470       0.00258359      -0.00663323      -0.00350827
Si       6.56385537       4.18641475       7.40626218       0.00047170       0.00476656      -0.00072139
Si       7.46688848      -1.03721762       5.41448357       0.00034950      -0.00439802       0.00324508
Si       9.06789628       2.72516463       4.11364925      -0.00720635      -0.00307693       0.00351579
Si       9.99558042       0.62233402       2.06627035      -0.00030619      -0.00159924      -0.00314727
Si      10.00316792       4.84929668       2.08030611       0.00534749       0.00029732      -0.00461483
O       -0.50905401       4.50368947       8.30937535      -0.00303138       0.00185944      -0.00035526
O       -0.41673062       0.80404517       8.19358417       0.00133161      -0.00040826      -0.00045822
O        0.11038975       0.95089072       1.32519183       0.00667345      -0.00170655      -0.00129596
O        0.07563084       4.56652074       1.23598898       0.00045428       0.00224932       0.00314585
O        0.82945153      -1.09431966       6.83682553       0.00014043      -0.00066852       0.00468839
O        0.83982421       3.82741277       6.09860076      -0.00198071      -0.00417466      -0.00799607
O        1.04967552       1.24312479       5.91052700      -0.00346040      -0.00147953       0.00082948
O        1.48785815       2.81626781       3.78427461       0.00203942       0.00375448      -0.00079804
O        1.91134684      -0.94484219       3.67287374       0.00172986       0.00174193      -0.00288472
O        2.23710245       0.72191953       8.33601683       0.00383509      -0.00060648       0.00123438
O        2.21345545      -2.86281233       8.38090514      -0.00339812      -0.00100489      -0.00040954
O        3.05345134       4.56216943       1.12939024      -0.00056554       0.00694561       0.00328804
O        3.07015567       0.93051277       1.18000616      -0.00552969       0.00114974      -0.00319637
O        3.35167679       2.71975033       5.84575157       0.00744877       0.00077723       0.00020173
O        3.77945493      -0.88994459       5.74780036       0.00055992       0.00010387       0.00078649
O        4.20649671       5.04596625       3.57572331       0.00100065       0.00203064      -0.00411780
O        4.38804490       0.26409786       3.48921208       0.00230935       0.00209293       0.00007263
O        4.45948957       2.72855811       2.63618183      -0.00160038       0.00098170      -0.00069197
O        5.23981114      -2.89535247       8.19847726       0.00393466      -0.00427289       0.00007365
O        5.14926377       0.80559758       8.31281475      -0.00449639       0.00266694      -0.00148489
O        5.72465467       4.65119777       1.33257245       0.00734260      -0.00053133      -0.00308374
O        5.73298546       0.86600325       1.23689636      -0.00161770       0.00284958       0.00120860
O        6.44360836       2.60774023       6.83925673       0.00064122       0.00143842       0.00474104
O        6.49242363       0.13287417       6.09683224       0.00268346      -0.00106349      -0.00095236
O        6.65985667       4.94650840       5.91485410       0.00410934       0.00196407      -0.00340125
O        7.14129766      -0.88321439       3.78454162      -0.00226599       0.00011261       0.00206122
O        7.53052547       2.75916465       3.67444700      -0.00245770       0.00058894      -0.00083491
O        7.82783221       0.83657073       8.37909640      -0.00161816       0.00071192       0.00161598
O        7.85107749       4.42239555       8.33830494      -0.00272091       0.00070340      -0.00321291
O        8.68495744       4.62959246       1.17982171      -0.00914773      -0.00043608      -0.00104435
O        8.70982589       0.86747095       1.12800940      -0.00105714      -0.00061788       0.00005306
O        9.00498364      -0.97518190       5.84490754      -0.00402242      -0.00205414      -0.00163680
O        9.40064454       2.80612779       5.74732117      -0.00067265       0.00305105       0.00462079
O        9.86881001       1.35184150       3.57053446       0.00415656      -0.00241921      -0.00068795
O       10.00509033       3.97104781       3.49193505       0.00207874      -0.00040292       0.00008362
O       10.11423984      -0.96738006       2.63250645       0.00349026      -0.00335557       0.00463530
H        0.62289334       3.27679533       3.68123577      -0.00105708      -0.00100373       0.00232840
H        4.65548088      -0.44877832       5.86405434      -0.00173821      -0.00221207      -0.00067849
H        6.27149908      -0.43193777       3.67968856       0.00021619       0.00094681       0.00470797
H       10.28138515       3.23758980       5.86589577      -0.00557822       0.00363091      -0.00488705
