88
Lattice="6.8037 0.0 0.0 -4.139012893 6.184814974 0.0 0.294028686 -0.269817895 22.405446357" Properties=species:S:1:pos:R:3:forces:R:3:energies:R:1 energy=-577.7920532226562 stress="-0.0016201658872887492 -0.002595478668808937 -0.0009778604144230485 -0.002595478668808937 -0.005585507024079561 1.2174716630397597e-06 -0.0009778604144230485 1.2174716630397597e-06 -0.00432487903162837" free_energy=-577.7920532226562 pbc="T T T"
Si      -5.05400736       4.35333085       9.80730677      -0.00174758      -0.00045639      -0.00129899      -6.21816540
Si      -4.81178767       4.41268989      13.01015985       0.00154420      -0.00174168      -0.00000122      -6.22272730
Si      -3.60435516       5.73400200       3.80226610      -0.00360067      -0.00346623       0.00056402      -6.37442398
Si      -3.32872029       5.81360905      19.15410947       0.00163380      -0.00050990      -0.00133642      -6.35932064
Si      -1.64435295       4.42982038       1.86104931      -0.00003960      -0.00062526      -0.00218359      -6.21256924
Si      -1.43028723       4.44612445      21.05777397       0.00183019      -0.00004411       0.00348964      -6.22302055
Si      -1.16238661       2.11876277       3.72153803      -0.00165993      -0.00038197      -0.00143038      -6.33143091
Si      -0.92242560       2.17221886      19.05596843      -0.00293079      -0.00061694      -0.00111996      -6.36656141
Si      -0.22302899       5.68191351       7.90237669      -0.00156258      -0.00127006       0.00083016      -6.33119297
Si       0.11027766       5.77723177      15.00479822       0.00230330       0.00034656       0.00279798      -6.34824514
Si       2.16075664       2.04016479       7.93122270       0.00223822       0.00214243      -0.00052949      -6.36846066
Si       2.50915837       2.16107905      14.97469191      -0.00233534      -0.00146851      -0.00090073      -6.38481998
O       -5.79886561       6.18790377       6.97305082       0.00135400       0.00080702      -0.00000798      -7.08994246
O       -5.25132329       5.12293244       0.70694998       0.00057881       0.00023658      -0.00013486      -6.75873423
O       -4.98238086       4.39597578      11.41767452       0.00079652       0.00040930       0.00092263      -6.27558231
O       -4.56126375       4.73877098       4.63912333       0.00086263       0.00147727      -0.00149037      -7.13507748
O       -4.26289711       4.79313601      18.32364659       0.00036329       0.00147486       0.00015720      -7.10758114
O       -3.40358548       3.14169209      15.90223358       0.00078586       0.00122040       0.00038879      -7.10408020
O       -3.72319997       3.00382169       7.00494452      -0.00008449      -0.00113808       0.00057032      -7.10390282
O       -3.77833798       5.19613780       9.21275292       0.00082403       0.00022386      -0.00006477      -6.84809017
O       -3.49221633       5.26063066      13.51429560       0.00109216      -0.00064587      -0.00060948      -6.81559229
O       -2.88603695       1.04341425      11.45834999       0.00076372      -0.00095909       0.00094372      -6.78497171
O       -3.08362262       4.99084948       2.38901343      -0.00096087      -0.00040020      -0.00009200      -6.34714270
O       -2.81942868       5.21026716      20.64952828      -0.00219032       0.00139234      -0.00107288      -6.38599157
O       -2.45577827       1.67259774       4.58373129       0.00108082       0.00000063      -0.00044290      -7.05163097
O       -2.20732546       1.66577783      18.22780875       0.00279843       0.00053053      -0.00024680      -7.04568768
O       -2.35684667       1.27549500      -0.14823881      -0.00096461      -0.00224511      -0.00016285      -6.86039257
O       -1.70055739       4.55666505       0.25105392      -0.00080906      -0.00002557      -0.00137886      -6.28840780
O       -1.93169728       5.10442779      11.14622637       0.00181381       0.00231693      -0.00133511      -6.78640938
O       -1.43439410       2.52544145       9.44058798       0.00106012       0.00087768      -0.00101804      -6.88228989
O       -1.29319123       0.04303559      15.90552702      -0.00141570      -0.00145994      -0.00172146      -7.07720661
O       -1.51212010       2.86243139       2.26125187       0.00020092      -0.00221687       0.00081083      -6.37589884
O       -1.40417697       2.94148331      20.45983288      -0.00051091       0.00017551      -0.00032613      -6.32448435
O       -1.17481874       4.69932102       7.03421273       0.00244608       0.00119429       0.00087177      -7.11863279
O       -1.22556255       2.76263112      13.51430274      -0.00009766       0.00267811      -0.00162491      -6.87913704
O       -0.86893621       4.79748181      15.83645973       0.00014282       0.00064436      -0.00008586      -7.14362049
O       -0.21343616       3.05280878       4.64915155       0.00116763       0.00031968       0.00046264      -7.09195042
O        0.01978472       3.11721413      18.14635880       0.00079111       0.00062333      -0.00141247      -7.12573099
O       -0.40229922       5.31938011       2.44961413       0.00143271       0.00034547      -0.00025882      -6.82549572
O       -0.34366133       0.78844460       3.17624003       0.00061581       0.00045488      -0.00045691      -6.37035942
O       -0.12455403       5.28081204      20.51177437      -0.00057983      -0.00030278       0.00162397      -6.84558439
O       -0.09512352       0.89691829      19.69098514       0.00012785      -0.00077778       0.00118701      -6.36748886
O        0.35688341       4.99113327       9.29805037       0.00133605      -0.00039739       0.00099883      -6.36273479
O        0.48068958       1.42645239      11.73846338       0.00060739      -0.00022309       0.00280511      -6.70944405
O        0.62202912       5.08641857      13.57516546      -0.00100274      -0.00038098      -0.00016618      -6.39085960
O        0.83620946       1.58772033       7.13089086      -0.00122005      -0.00050658      -0.00079443      -7.01496124
O        0.66678572       1.55584166       0.14136231      -0.00157096       0.00032331       0.00002528      -6.76851130
O        1.19173801       1.66759622      15.76022173       0.00222643       0.00026303       0.00012897      -7.00432301
O        1.78362129       0.02553506       4.70453530       0.00108193       0.00065005       0.00111267      -7.09112215
O        1.74802101       2.76902944       9.39350053      -0.00004065       0.00064813       0.00072100      -6.37284946
O        2.12437377       2.85851395      13.49616494      -0.00021787       0.00163178      -0.00065951      -6.40248394
O        2.06931852       0.08428544      18.24710235      -0.00191274      -0.00007653       0.00139482      -7.06630135
O        2.25917790       2.31034341       2.27379941      -0.00212900      -0.00169284       0.00103725      -6.89417887
O        2.27788576       2.72407788      20.57264983      -0.00094066      -0.00030099       0.00127567      -6.91356945
O        3.00723016       0.74006811       8.48370532       0.00142722      -0.00129056      -0.00026572      -6.34214306
O        3.38925130       0.87190147      14.43861997       0.00087824      -0.00001592       0.00036578      -6.34930611
H       -4.39903901       5.29858433       1.17336553      -0.00003384      -0.00014388      -0.00119301      -6.33669424
H       -4.41516098       3.64438025      20.87831667      -0.00008354      -0.00047307      -0.00012814      -6.28945637
H       -4.36129312       3.22921371       2.00719235       0.00318292       0.00236876      -0.00146106      -6.32044983
H       -3.02055689       5.26684158       9.87071920       0.00035919       0.00009799      -0.00036601      -6.39355421
H       -2.81700437       5.31219388      12.79085367      -0.00147755       0.00075279       0.00241090      -6.34379148
H       -1.94055394       1.89346759      10.00622492      -0.00183571      -0.00059947      -0.00002444      -6.42693567
H       -2.87852260       1.56209898       0.63104496      -0.00254215       0.00061533       0.00149866      -6.36315298
H       -1.93923366       1.79366935      21.66226149      -0.00070681       0.00172304      -0.00062273      -6.38045502
H       -1.37375272      -0.20887941       0.28800060      -0.00036451      -0.00063269      -0.00034421      -6.40085697
H       -0.75671409       2.26238786      12.80161434       0.00055945       0.00103942      -0.00056242      -6.43705559
H       -1.44220597       4.36435523      10.72454989      -0.00028209      -0.00007908      -0.00005754      -6.33905458
H       -0.49635616       2.29564721       9.57503980      -0.00103540      -0.00037487       0.00198175      -6.30725861
H       -0.96862221       3.69265823      13.35176062      -0.00074292      -0.00303250       0.00003210      -6.29966354
H        0.01924146       1.45800218      22.75327854       0.00084375       0.00075575       0.00060521      -6.38293171
H        0.10603688       6.05802023      21.09606470      -0.00114236      -0.00067665      -0.00034243      -6.38553810
H        0.42646118       5.23399651       1.86989047      -0.00131230      -0.00121768       0.00100974      -6.42062569
H        1.10323576       1.69950895      12.45036564      -0.00019395      -0.00060276       0.00009216      -6.34137869
H        0.92535430       1.75035998      10.92524852       0.00060234       0.00040286      -0.00231760      -6.35477448
H        0.96912266       0.48880061      21.96983658      -0.00045357       0.00001132      -0.00038655      -6.36047363
H        1.71168214       2.29492476      21.25918306       0.00059169       0.00119275      -0.00187360      -6.41263151
H        1.59075620       1.97559757       1.62597119      -0.00100220       0.00044724      -0.00031129      -6.44103956
H        2.82312324      -0.29358586      11.12319579      -0.00050234      -0.00109556      -0.00046951      -6.45181179
H        3.51980317       1.71468919      12.05261948      -0.00049267       0.00054262      -0.00112975      -6.34427691
H        4.46042402       0.50863989      12.07415966      -0.00038653       0.00091240       0.00013078      -6.31359482
Ca      -3.48851360       5.40649602       6.81886687       0.00021122      -0.00046904      -0.00011064      -6.40594816
Ca      -3.16450905       5.48792046      16.06672449       0.00036490       0.00026990       0.00007583      -6.39720821
Ca      -1.37379570       2.38310094       6.79440920       0.00034265       0.00027673       0.00013979      -6.42243147
Ca      -1.04427603       2.44894602      16.00326632      -0.00034986      -0.00034258       0.00004291      -6.42532539
Ca      -0.06363134       5.43707231       4.89370336       0.00056798      -0.00051133       0.00069648      -6.40427256
Ca       0.22486616       5.47854600      18.02889204      -0.00009765       0.00023038       0.00036051      -6.40316105
Ca       2.09897543       2.39213473       4.81068739       0.00029711      -0.00021120       0.00017769      -6.42365885
Ca       2.36667035       2.47330679      18.09051397      -0.00056674       0.00105184       0.00159013      -6.42153835
