104
Lattice="6.8064 0.0 0.0 -4.110446609 6.204676621 0.0 0.625289135 0.845051123 28.212521555000002" Properties=species:S:1:pos:R:3:forces:R:3 energy=-655.51575629 pbc="T T T"
Ca      -6.18460474       5.95912940      21.89509737       0.00013213       0.00352309      -0.00001612
Ca      -6.10804829       5.99430441      14.01072292       0.00170122       0.00244923       0.00347223
Ca      -4.22347523       2.80656290      21.96211450      -0.00062710      -0.00017401      -0.00140827
Ca      -3.54395732       5.64366858       7.83002418       0.00270453       0.00293697       0.00092868
Ca      -2.77270547       5.96178882      19.97923195      -0.00083641      -0.00008493      -0.00156976
Ca      -1.58383649       2.45829357       7.95781804      -0.00167261       0.00235092      -0.00218186
Ca      -1.16711889       2.48898071      -0.18031267      -0.00052014       0.00011245       0.00163798
Ca      -0.63216038       2.91740093      19.88509212       0.00064937      -0.00064746       0.00286566
Ca      -0.20418533       5.58569283       5.85631996       0.00352734      -0.00340264       0.00424651
Ca       1.95527318       2.55433001       5.97566641       0.00180975      -0.00080496      -0.00174566
Si      -6.24900703       6.25023319      18.87842740      -0.00281056      -0.00176676       0.00031217
Si      -4.39305763       4.87599329      16.79763159      -0.00070287      -0.00199023       0.00466449
Si      -3.71553823       5.94543080       4.72280073      -0.00135166      -0.00096444      -0.00005546
Si      -3.86636676       2.64140201      18.82985170       0.00029778       0.00198295       0.00002554
Si      -3.26196032       1.38236828      11.09633773      -0.00386360      -0.00169911       0.00389498
Si      -2.60036577       5.65273901      23.14344719       0.00023263      -0.00214941       0.00554722
Si      -1.86697615       4.51736350       2.72304261       0.00192975      -0.00310488       0.00417255
Si      -1.35101561       2.30279292       4.88965340       0.00175767       0.00241306       0.00091438
Si      -0.94858939       3.03683175      22.99016751       0.00044515      -0.00450536       0.00270038
Si      -0.06140322       5.35872347       8.95675675      -0.00485777      -0.00661806      -0.00083010
Si       0.88362750       1.69185515      25.16322246       0.00448783      -0.00013045       0.00202758
Si       1.66662406       2.78997229       9.08715043       0.00098331      -0.00140073      -0.00344125
O       -7.39401330       7.42587902      12.67772173      -0.00105146       0.00289328      -0.00384591
O       -5.86252428       6.26241575       8.07342485       0.00213211      -0.00254468       0.00029398
O       -5.91029101       5.92831636      24.42550022       0.00475271       0.00265946       0.00183489
O       -5.59991658       2.88025030       0.55706837       0.00174953       0.00828990      -0.00120914
O       -5.69824407       5.55712862      17.49778500       0.00060709      -0.00095580       0.00061228
O       -4.66821136       4.90510472       5.53755946      -0.00055256       0.00097509      -0.00063343
O       -5.02642696       6.72896580      19.83580200      -0.00393738      -0.00213784      -0.00257567
O       -4.76555589       2.76137143       3.33999609      -0.00046038      -0.00249708      -0.00126079
O       -4.65875249       7.22117137       4.20864944       0.00210958      -0.00147792      -0.00128552
O       -4.54484037       4.88295033      15.20527152      -0.00258147      -0.00257444      -0.00114479
O       -4.29968375       6.91114618      12.43358633      -0.00039711       0.00462931       0.00557309
O       -3.93182065       3.28961074       8.11410782      -0.00112504       0.00031023       0.00031421
O       -4.34508907       3.32159453      17.38253237       0.00016770       0.00347567      -0.00168672
O       -3.94541649       5.16964236      22.36456391      -0.00015223       0.00170083      -0.00087444
O       -3.17897392       5.35973566       3.27280737      -0.00266493       0.00182336       0.00177298
O       -3.26419591       5.33333403      10.45716652      -0.00087200       0.00336008      -0.00405655
O       -4.22350830       5.09344234       0.16693808       0.00380318       0.00059394      -0.00122663
O       -2.77431829       3.49975169      14.01684432      -0.00012308      -0.00515530      -0.00260226
O       -2.95046418       3.62115729      19.73565131      -0.00137095      -0.00228215      -0.00057717
O       -2.59344649       1.76966191       5.79479391       0.00075725       0.00162490      -0.00055597
O       -2.50678448       6.42594090       5.70365140      -0.00168000       0.00133457      -0.00119594
O       -2.91241121       6.35455677      24.63900901      -0.00035553      -0.00001893      -0.00193016
O       -3.47913521       1.62466299      -0.87808301      -0.00244378       0.00917182       0.00233227
O       -3.05899370       5.70888368      17.37342692      -0.00102034       0.00030103       0.00203259
O       -2.96314706       1.35886078      18.25744127       0.00226490       0.00117584       0.00220535
O       -2.03026436       1.55284753      15.64381501      -0.00284464       0.00402898       0.00508889
O       -1.91178310       2.19048540      10.49431893      -0.00067639      -0.00060117       0.00023988
O       -1.94552357       3.09734712       3.57323229      -0.00073154       0.00216453      -0.00318169
O       -1.93143713       4.23133878       1.16255282       0.00397995      -0.00239177      -0.00402534
O       -1.97305336       2.11429569      22.14608076       0.00568148       0.00443226       0.00121271
O       -1.72284403       6.61208787      22.16774884      -0.00017530       0.00058768      -0.00279626
O       -1.30371330       4.84336896       8.05364647       0.00545339      -0.00152076      -0.00172560
O       -1.73646119       4.33248306      23.64020297      -0.00328981       0.00008777      -0.00181363
O       -0.48862314       5.29849235       3.28274484      -0.00035142      -0.00102332      -0.00145020
O       -0.34736660       3.19676883       5.79146123       0.00098802       0.00071976       0.00130854
O       -0.98657759       4.92595393      15.38535770      -0.00500253       0.00299135      -0.00226469
O       -1.41855387       0.70242387       1.57794223       0.00202474      -0.00003256      -0.00539554
O       -0.65791570       6.12287959      10.31745341      -0.00054824      -0.00011450      -0.00148949
O       -0.45416300       5.30674704      19.71928919       0.00007724       0.00081911       0.00107715
O       -0.74969735       5.11686852      26.41702322       0.00063826      -0.00203357      -0.00352735
O       -0.31329035       2.92629507      17.30616102      -0.00280300      -0.00263381       0.00000615
O       -0.44449880       2.16817404      24.31470257      -0.00186030       0.00305681      -0.00478993
O        0.29607554       3.53176591      22.06405630       0.00404231       0.00191831      -0.00172725
O        0.72176483       1.74381747       8.29982016       0.00409880       0.00139515      -0.00056092
O        0.80023078       4.16250147      12.43120291       0.00475801      -0.00619319       0.00369914
O        0.73493768       4.06520197       9.64000572      -0.00401514       0.00214640      -0.00090644
O        0.59675496       1.75855009      26.72988452       0.00237374      -0.00163405      -0.00090863
O        1.67133575       2.12084061      19.69908921      -0.00378710      -0.00154749       0.00197107
O        2.27440575       2.27031413      10.54469458       0.00282818      -0.00025469      -0.00106393
O        2.13658651       2.67973448      24.61793787      -0.00313636      -0.00071529      -0.00247830
H       -8.38563714       8.18278253      -0.39281689       0.00315159      -0.00032464       0.00078294
H       -5.55883196       6.85180842      24.52434835      -0.00031437      -0.00173136       0.00073780
H       -5.38509093       2.71243093       1.50715507       0.00266975       0.00010316       0.00357868
H       -4.91535400       3.72706756       3.42139327       0.00388713       0.00245591       0.00061433
H       -5.15924881       3.76995109       0.34936633      -0.00158090       0.00189217      -0.00131606
H       -5.10217531       5.37402222      24.38030869      -0.00134322      -0.00167909       0.00379233
H       -4.98970244       6.15228759       1.16828591      -0.00475560      -0.00101295       0.00069648
H       -3.58266326       4.00071716      14.41482159      -0.00278195      -0.00043314      -0.00173330
H       -3.78016433       2.70083902       3.26728932      -0.00082682       0.00027607       0.00029762
H       -3.95000911       6.27199821      11.74743538       0.00194449      -0.00407783      -0.00325015
H       -3.91764415       2.75176903      25.23960521      -0.00043123       0.00231849      -0.00007644
H       -4.12347793       5.78109786      -0.57773225      -0.00232622      -0.00366365      -0.00068401
H       -3.03554366       2.72598675      13.43417843      -0.00082861       0.00357116       0.00162250
H       -3.31872781       4.37239496      10.63017503       0.00118495      -0.00721828       0.00271597
H       -2.54614107       1.42789965      16.48170340      -0.00233068      -0.00323076      -0.00158306
H       -2.28968899       5.53965697      10.49408441       0.00344517       0.00194774       0.00282128
H       -3.29927857       4.83688543       0.50310066      -0.00122833       0.00072778      -0.00087362
H       -2.39290881       2.36916083      15.17678760      -0.00096320      -0.00133522       0.00073454
H       -2.97369582       1.49962503      27.34737527      -0.00104951      -0.00277907      -0.00086316
H       -2.28194128       5.63675500      16.77287909       0.00296784       0.00239832       0.00105306
H       -1.58260105       4.36562087      14.80885123      -0.00187045       0.00185854       0.00063270
H       -1.12187822       1.97945442      11.04152525       0.00358654       0.00024549      -0.00011354
H       -0.00290631       5.84972765       2.61898430       0.00466816      -0.00382112      -0.00176752
H       -0.63997658       4.31311565      16.08833283       0.00071735      -0.00101165       0.00268708
H       -0.98368740       0.89794879       2.44589141      -0.00222711       0.00099821       0.00011988
H       -1.61059414       5.28131542      25.97669369       0.00207006      -0.00371016      -0.00003733
H        0.61717387       1.07503006      12.84050486      -0.00518554      -0.00555941      -0.00095163
H       -0.73890006       2.24330403      16.72803574       0.00045993       0.00210459       0.00119563
H       -0.10018383       5.33984781      25.69403913      -0.00306641       0.00093605      -0.00165896
H        0.65041658       4.20501237      11.45266004       0.00020445      -0.00196444      -0.00129855
H        0.66553842       2.82248680      17.21866460      -0.00311141       0.00154137       0.00258040
H        1.49490627       3.48606374      12.52389328      -0.00342972       0.00552534      -0.00142665
