62
Lattice="11.2714 0.0 0.0 -0.043430255 7.399172541 0.0 -0.324002368 -1.991989071 9.511957932000001" Properties=species:S:1:pos:R:3:forces:R:3 pbc="T T T"
Ca      -0.18916165      -0.55682763       4.74644204       0.00027863      -0.00116518       0.00172848
Ca       1.62080817      -0.94221892       1.21506334       0.00105510      -0.00101309       0.00135359
Ca       1.54494706       2.74650047       1.07335425       0.00051864       0.00159652       0.00181376
Ca       3.63373319       2.65931806       8.29129930      -0.00290274       0.00005664      -0.00072384
Ca       3.77022860      -1.08717836       8.45680381       0.00004414       0.00181972      -0.00143598
Ca       5.42808767       3.14324347       4.74772718      -0.00081626       0.00106541       0.00031700
Ca       7.23561442       2.75751514       1.21659498      -0.00035140      -0.00272764       0.00022293
Ca       7.20200123      -0.95307629       1.07749503       0.00168713      -0.00003017      -0.00233731
Ca       9.29091144      -1.03971306       8.29055545       0.00006324       0.00066806      -0.00011465
Ca       9.38426213       2.61312184       8.45477418       0.00047249       0.00003664      -0.00028201
Si       0.84418647      -2.64612003       7.47495614      -0.00124989       0.00757654      -0.00203052
Si       0.90346678       0.49502513       7.40946089       0.00173126      -0.00041092      -0.00110331
Si       1.79766110       2.66089791       5.41112790      -0.00084492       0.00225160      -0.00136204
Si       3.46858185      -0.97843460       4.11454357      -0.00080235      -0.00298577      -0.00349422
Si       4.38247409       4.32088710       2.07032465      -0.00421701      -0.00176751       0.00191772
Si       4.43468710       1.14408127       2.08154048      -0.00324351      -0.00105765       0.00187028
Si       6.45808811       1.05456988       7.47541172       0.00179990      -0.00307263       0.00266095
Si       6.51615283       4.19595573       7.41348659      -0.00302442       0.00251514      -0.00176072
Si       7.45174884      -1.03791855       5.41180634       0.00404657      -0.00085122      -0.00103584
Si       9.08706169       2.72215492       4.11444259      -0.00844116       0.00263581       0.00014559
Si      10.04073631       0.62233081       2.06862443       0.00044107       0.00134191      -0.00402239
Si      10.04974461       4.84366900       2.07917528      -0.00024111       0.00461405      -0.00204972
O       -0.57552462       4.50151283       8.26576121       0.00136929      -0.00019499       0.00051289
O       -0.48052618       0.81452583       8.16544193      -0.00194174       0.00014468       0.00229257
O        0.17071001       0.94911250       1.35870063      -0.00229686      -0.00149029       0.00173950
O        0.14045634       4.57069930       1.26768562       0.00107962      -0.00201103       0.00124325
O        0.79821028      -1.08683227       6.84456351       0.00095106      -0.00497265      -0.00003104
O        0.82927915       3.84181054       6.08274712       0.00087346      -0.00509954      -0.00487862
O        1.03177043       1.24842859       5.91523351      -0.00346870       0.00047645      -0.00071150
O        1.48293236       2.80630288       3.77843934      -0.00329599       0.00027439       0.00666395
O        1.93200754      -0.93824498       3.67608401      -0.00021489       0.00127912       0.00125595
O        2.18343128       0.72895872       8.35207972      -0.00364015       0.00141710       0.00090501
O        2.15534011      -2.86905086       8.39069079       0.00270283       0.00000064       0.00030599
O        3.10885178       4.56614812       1.11682055       0.00084800      -0.00033968       0.00013263
O        3.12364665       0.91913405       1.17058460       0.00406248      -0.00142990       0.00221173
O        3.33587946       2.72672102       5.83757882       0.00299870       0.00009692      -0.00060988
O        3.78721624      -0.89978570       5.75061693      -0.00281231      -0.00096739       0.00043124
O        4.22945792       5.04671775       3.57547206       0.00092014       0.00111888       0.00447941
O        4.40715057       0.26728109       3.49620624       0.00209442       0.00343287      -0.00308344
O        4.47801568       2.72882564       2.63560317      -0.00046740       0.00156609      -0.00108955
O        5.17615570      -2.88585476       8.17150120       0.00299750      -0.00030176      -0.00201788
O        5.08180607       0.80129891       8.26593052       0.00479175       0.00037679      -0.00016000
O        5.78480211       4.64725674       1.36234410       0.00185135       0.00063316      -0.00240019
O        5.79809641       0.87132775       1.27231463       0.00119711      -0.00288044      -0.00439373
O        6.41241010       2.61450265       6.84733810       0.00131106      -0.00097292      -0.00177401
O        6.48653354       0.14604142       6.08141727      -0.00348981       0.00105473       0.00162366
O        6.64143935       4.95070033       5.91978714      -0.00226586      -0.00366730      -0.00097868
O        7.13413649      -0.89644091       3.77946281      -0.00017906       0.00204957       0.00058126
O        7.54966985       2.76282058       3.67832693       0.00333195       0.00178365       0.00274344
O        7.76953209       0.83050978       8.39072432      -0.00224390       0.00209348      -0.00298517
O        7.79700560       4.43022189       8.35453417      -0.00137402      -0.00052340      -0.00001101
O        8.73771338       4.61815221       1.17013123       0.00111505       0.00052925       0.00213391
O        8.76591632       0.86746136       1.11681446       0.00155468       0.00112738       0.00320654
O        8.99089694      -0.97378423       5.83529386       0.00135613       0.00128862       0.00100452
O        9.40780385       2.79964725       5.75013291      -0.00481023       0.00015470      -0.00325849
O        9.88952939       1.34744918       3.57443144       0.00271744      -0.00253556      -0.00228439
O       10.02485380       3.96806186       3.49440929       0.00000637      -0.00299408       0.00435364
O       10.13657628      -0.97009528       2.63242204      -0.00240527      -0.00546655       0.00072720
H        0.61203231       3.25505706       3.66871886      -0.00069738      -0.00070374      -0.00116959
H        4.65982441      -0.45459982       5.87676686       0.00471873       0.00169707       0.00209488
H        6.26095837      -0.45171601       3.67025220       0.00279671       0.00097705      -0.00179137
H       10.28358559       3.23939681       5.87593572       0.00195434       0.00188236       0.00270761
