LAMMPS (29 Sep 2021 - Update 2)
OMP_NUM_THREADS environment is not set. Defaulting to 1 thread. (src/comm.cpp:98)
  using 1 OpenMP thread(s) per MPI task
# Compute elastic constant tensor for a crystal at finite temperature
#
# WARNING: This script attempts to measure small differences in
# statistical averages generated by finite temperature MD simulations.
# This creates many more opportunities for errors to occur, compared
# to the zero temperature version provided in examples/ELASTIC.
# Hence, it is always a good idea to start with the zero temperature
# calculation, before attempting to use this script.
#
# Written by Aidan Thompson (Sandia, athomps@sandia.gov)
#
#  This script uses the following three include files.
#
#   init.mod      (must be modified for different crystal structures)
# 	       	  Define units, MD parameters, deformation parameters,
#		  and initial configuration of the atoms and simulation cell.
#
#
#   potential.mod    (must be modified for different pair styles)
# 		     Define pair style and other attributes
#		     not stored in restart file
#
#
#   displace.mod    (displace.mod should not need to be modified)
# 		    Perform positive and negative box displacements
# 		    in direction ${dir} and size ${up}.
# 		    It uses the resultant changes
#		    in stress to compute one
# 		    row of the elastic stiffness tensor
#
#		    Inputs variables:
#		    	   dir = the Voigt deformation component
#		    		    (1,2,3,4,5,6)
#		    Global constants:
#       	    	   up = the deformation magnitude (strain units)
#       		   cfac = conversion from LAMMPS pressure units to
#               	   output units for elastic constants
#
#
#  To run this on a different system, it should only be necessary to
#  modify the files init.mod and potential.mod. In order to calculate
#  the elastic constants correctly, care must be taken to specify
#  the correct units in init.mod (units, cfac and cunits). It is also
#  important to verify that the MD sampling of stress components
#  is generating accurate statistical averages.
#  One indication of this is that the elastic constants are insensitive
#  to the choice of the variable ${up} in init.mod. Another is to
#  check for finite size effects.
#

# include init.mod

# NOTE: This script can be modified for different atomic structures,
# units, etc. See in.elastic for more info.
#

# Define the finite deformation size. Try several values of this
# variable to verify that results do not depend on it.
variable up equal 2.0e-2

# real units, elastic constants in GPa
units		metal
atom_style atomic
variable cfac equal 1.0e-4
variable cunits string GPa

# Define MD parameters
variable nevery equal 10                  # sampling interval
variable nrepeat equal 10                 # number of samples
variable nfreq equal ${nevery}*${nrepeat} # length of one average
variable nfreq equal 10*${nrepeat} 
variable nfreq equal 10*10 
variable nthermo equal ${nfreq}           # interval for thermo output
variable nthermo equal 100           
variable nequil equal 10*${nthermo}       # length of equilibration run
variable nequil equal 10*100       
variable nrun equal 3*${nthermo}          # length of equilibrated run
variable nrun equal 3*100          
variable temp equal 300                   # temperature of initial sample
variable timestep equal 0.0001             # timestep
variable adiabatic equal 2                # adiabatic (1) or isothermal (2)
variable tdamp equal 0.01                 # time constant for thermostat
variable seed equal 123457                # seed for thermostat

# generate the box and atom positions using a diamond lattice
variable a equal 5.431

boundary	p p p
newton off


box tilt large
read_data tob14_ref_deepmd.data
Reading data file ...
  triclinic box = (0.0000000 0.0000000 0.0000000) to (6.9541015 6.3530143 28.422936) with tilt (2.6303553 0.54033995 1.3928068)
  1 by 1 by 1 MPI processor grid
  reading atoms ...
  104 atoms
  read_data CPU = 0.001 seconds

pair_style	nequip
pair_coeff	* * tob14_l3-deployed.pth Ca Si O H
mass            1 40.079800
mass            2 28.08500
mass            3 15.9994
mass            4 1.00794


change_box all triclinic
Changing box ...
  triclinic box = (0.0000000 0.0000000 0.0000000) to (6.9541015 6.3530143 28.422936) with tilt (2.6303553 0.54033995 1.3928068)

velocity	all create ${temp} 87287
velocity	all create 300 87287

thermo 100
min_style cg
minimize 1.0e-15 1.0e-15 100000 100000 #设置能量最小化
WARNING: Using 'neigh_modify every 1 delay 0 check yes' setting during minimization (src/min.cpp:188)
Neighbor list info ...
  update every 1 steps, delay 0 steps, check yes
  max neighbors/atom: 2000, page size: 100000
  master list distance cutoff = 6
  ghost atom cutoff = 6
  binsize = 3, bins = 4 3 10
  1 neighbor lists, perpetual/occasional/extra = 1 0 0
  (1) pair nequip, perpetual
      attributes: full, newton off
      pair build: full/bin/atomonly
      stencil: full/bin/3d
      bin: standard
Per MPI rank memory allocation (min/avg/max) = 4.220 | 4.220 | 4.220 Mbytes
Step Temp E_pair E_mol TotEng Press 
       0          300   -656.03473            0   -652.04059   -42056.682 
     100          300   -663.66132            0   -659.66718   -29849.396 
     138          300   -663.68756            0   -659.69342   -29134.113 
Loop time of 31.8771 on 1 procs for 138 steps with 104 atoms

99.7% CPU use with 1 MPI tasks x 1 OpenMP threads

Minimization stats:
  Stopping criterion = energy tolerance
  Energy initial, next-to-last, final = 
     -656.034729003906  -663.687561035156  -663.687561035156
  Force two-norm initial, final = 18.323520 0.086581085
  Force max component initial, final = 3.9786594 0.018389562
  Final line search alpha, max atom move = 1.0000000 0.018389562
  Iterations, force evaluations = 138 276

MPI task timing breakdown:
Section |  min time  |  avg time  |  max time  |%varavg| %total
---------------------------------------------------------------
Pair    | 31.873     | 31.873     | 31.873     |   0.0 | 99.99
Neigh   | 0.00049424 | 0.00049424 | 0.00049424 |   0.0 |  0.00
Comm    | 0.0011215  | 0.0011215  | 0.0011215  |   0.0 |  0.00
Output  | 5.2452e-05 | 5.2452e-05 | 5.2452e-05 |   0.0 |  0.00
Modify  | 0          | 0          | 0          |   0.0 |  0.00
Other   |            | 0.002293   |            |       |  0.01

Nlocal:        104.000 ave         104 max         104 min
Histogram: 1 0 0 0 0 0 0 0 0 0
Nghost:        1132.00 ave        1132 max        1132 min
Histogram: 1 0 0 0 0 0 0 0 0 0
Neighs:         0.00000 ave           0 max           0 min
Histogram: 1 0 0 0 0 0 0 0 0 0
FullNghs:      7580.00 ave        7580 max        7580 min
Histogram: 1 0 0 0 0 0 0 0 0 0

Total # of neighbors = 7580
Ave neighs/atom = 72.884615
Neighbor list builds = 1
Dangerous builds = 0

thermo_style  custom step temp press etotal lx ly lz xy yz xz pxx pyy pzz

#timestep 0.0001

#fix 456 all nve
#fix 567 all langevin 300.0 300.0 0.01 12345

#run 5000

#unfix 456
#unfix 567
fix 123 all npt temp 300 300 0.01 iso 1.0 1.0 0.1
run 10000
Per MPI rank memory allocation (min/avg/max) = 3.111 | 3.111 | 3.111 Mbytes
Step Temp Press TotEng Lx Ly Lz Xy Yz Xz Pxx Pyy Pzz 
     138          300   -29134.101   -659.69342    6.9541015    6.3530143    28.422936    2.6303553    1.3928068   0.54033995   -29016.008   -37650.944    -20735.35 
     200    307.57577   -10908.153   -656.08518    6.8332153     6.242577    27.928847    2.5846306     1.368595   0.53094698    3061.8224   -26260.683   -9525.5979 
     300    274.72264    7989.7609   -656.84435    6.7874627    6.2007791    27.741846    2.5673249    1.3594314   0.52739197   -735.04934    659.50781    24044.824 
     400     285.4225    3918.7785   -657.23302    6.7667291    6.1818377    27.657104    2.5594825    1.3552788   0.52578095   -517.11751     6058.675     6214.778 
     500     303.6228    5649.3011   -657.32256    6.8108386    6.2221345    27.837389    2.5761667    1.3641133    0.5292083    9141.0069    1129.4502    6677.4462 
     600    297.90405    1677.6901   -656.97133    6.7889086       6.2021    27.747756    2.5678718     1.359721   0.52750431    7409.4468    4053.1283   -6429.5047 
     700    298.38975     13138.89   -656.69637    6.7497069    6.1662869     27.58753     2.553044    1.3518695   0.52445831    15537.904    13746.917    10131.849 
     800    266.01247    346.56569   -657.73968    6.8164591    6.2272692    27.860361    2.5782927     1.365239   0.52964502    1137.7404   -4013.5862    3915.5429 
     900    255.04929   -2023.3352   -657.31838    6.7732786     6.187821    27.683873    2.5619599    1.3565906   0.52628985   -2297.1305   -6565.1184    2792.2433 
    1000    298.77557    4743.8718   -657.80616    6.7937185    6.2064942    27.767415    2.5696912    1.3606844   0.52787805    10135.913    -8568.847    12664.549 
    1100    303.77134   -4418.1033   -656.23269    6.8271655    6.2370501     27.90412    2.5823423    1.3673833   0.53047691   -5759.4647    1686.6395   -9181.4847 
    1200    277.26137    6476.4504    -657.2804    6.7833073     6.196983    27.724862    2.5657532    1.3585992   0.52706909    2240.2991    5606.8008    11582.251 
    1300    257.62694    7378.2115   -658.06775     6.774227    6.1886875    27.687749    2.5623186    1.3567805   0.52636354    8106.3985    2358.8047    11669.431 
    1400    280.24238   -3914.8033   -657.40636    6.8017714    6.2138511    27.800329    2.5727371    1.3622973   0.52850377   -2970.6836   -4817.8241   -3955.9023 
    1500    292.26036    5003.1696    -657.2463    6.7965704    6.2090996    27.779072    2.5707699    1.3612556   0.52809965    6053.8545   -869.29816    9824.9525 
    1600    306.09004    1750.6718   -656.90006     6.773249    6.1877941    27.683752    2.5619487    1.3565847   0.52628755    3771.0485   -1654.1334    3135.1002 
    1700    272.17617   -2349.0102   -657.21755    6.8070837    6.2187042    27.822042    2.5747465    1.3633613   0.52891654   -1440.6827   -9981.8008     4375.453 
    1800    316.23455    4619.2904   -656.40501    6.7775915    6.1917612    27.701501    2.5635912    1.3574544   0.52662497     10727.19   -10239.911    13370.592 
    1900    295.28414   -2407.4386    -657.5681     6.783727    6.1973664    27.726578    2.5659119    1.3586832    0.5271017    -10386.08   -4105.7241    7269.4881 
    2000    299.04775   -6779.5517   -657.24217    6.7823926    6.1961473    27.721124    2.5654072     1.358416   0.52699802   -9180.7812   -13071.673     1913.799 
    2100    315.56694   -1012.4973   -656.18526    6.7887782     6.201981    27.747223    2.5678225    1.3596949   0.52749418    1160.5785   -8071.0574     3872.987 
    2200    269.72924   -837.69178   -657.58735    6.8067827    6.2184292    27.820812    2.5746326     1.363301   0.52889315   -94.214891    2277.0419   -4695.9023 
    2300     281.6052    47.454989   -657.39701    6.7736874    6.1881945    27.685544    2.5621145    1.3566724   0.52632161   -2976.5714    2901.9011     217.0353 
    2400    325.40088     6895.352   -656.69423    6.8156233    6.2265056    27.856945    2.5779765    1.3650716   0.52958007    4891.8061   -3467.6851    19261.935 
    2500    261.87779   -1539.8744   -657.61748    6.7883163     6.201559    27.745335    2.5676478    1.3596024   0.52745829   -4464.0911    -11449.12    11293.588 
    2600    311.72115   -5287.1635   -656.19856    6.7997845    6.2120359    27.792208    2.5719856    1.3618993   0.52834939    -6175.831   -12688.857    3003.1973 
    2700    300.08168    5628.5066   -657.32564    6.8000077    6.2122398     27.79312      2.57207     1.361944   0.52836672    11345.155   -10945.468    16485.833 
    2800    322.31303   -1249.1767   -656.61773     6.771811    6.1864803    27.677874    2.5614047    1.3562966   0.52617582    4914.2908   -10782.638    2120.8172 
    2900    306.89588   -1583.6946   -656.54552    6.7982316    6.2106173    27.785861    2.5713982    1.3615883   0.52822872    6360.6069    -12233.08     1121.389 
    3000    318.20092    10394.359   -656.90361     6.749616    6.1662038    27.587159    2.5530096    1.3518513   0.52445125    16080.912    3009.3907    12092.774 
    3100    281.90857   -3739.0281   -657.35079    6.7997933     6.212044    27.792244    2.5719889    1.3619011   0.52835007    -8492.014   -7848.7202    5123.6499 
    3200    283.98537    8781.9505   -657.25753    6.7800991     6.194052     27.71175    2.5645397    1.3579566   0.52681981    12923.164   -176.98334    13599.671 
    3300    290.56628    6321.2162   -657.09875    6.7580179    6.1738795    27.621499    2.5561876    1.3535341   0.52510408    10196.339   -9143.1492    17910.459 
    3400    283.33658   -630.87907   -657.90759    6.7995574    6.2118285     27.79128    2.5718997    1.3618538   0.52833174      6655.54   -7680.8972   -867.27995 
    3500    293.94904       3823.3   -657.21814     6.791039    6.2040463    27.756463    2.5686776    1.3601477   0.52766985    645.65568    671.84766    10152.397 
    3600    276.35857    2371.7824   -657.37659    6.7773039    6.1914984    27.700325    2.5634824    1.3573968   0.52660262    7755.5992   -6136.0231     5495.771 
    3700    306.07191   -17454.727   -656.86234     6.832278    6.2417208    27.925016    2.5842761    1.3684073   0.53087415   -26153.367   -15474.924   -10735.891 
    3800    306.74567    9102.6829   -656.53806    6.7909746    6.2039875      27.7562    2.5686533    1.3601348   0.52766484   -2205.5954   -1872.8309    31386.475 
    3900    291.88804   -10743.648   -657.02335    6.7813246    6.1951716    27.716759    2.5650032    1.3582021   0.52691503   -14558.123   -11302.802   -6370.0185 
    4000    243.29086    1835.2581   -657.53059    6.7932211    6.2060398    27.765382     2.569503    1.3605848    0.5278394     116.3368   -934.03414    6323.4718 
    4100    265.48003    3507.6735   -656.87537    6.7726649    6.1872604    27.681365    2.5617277    1.3564677   0.52624217     2747.154   -840.63191    8616.4984 
    4200    335.90678   -4674.9259   -656.65049    6.8153135    6.2262226    27.855679    2.5778594    1.3650096     0.529556   -1889.1236   -9836.7697   -2298.8844 
    4300    303.65695    6456.4587   -656.90108    6.7869204    6.2002837     27.73963    2.5671198    1.3593228   0.52734983    11127.652    1527.8521    6713.8718 
    4400    300.82126    9334.9566   -656.76965    6.7612252    6.1768095    27.634608    2.5574007    1.3541764   0.52535329    6422.4845    12428.274    9154.1117 
    4500    307.77091   -6480.6853    -657.0783    6.8190415    6.2296284    27.870916    2.5792695    1.3657562   0.52984567   -13707.235   -13580.273    7845.4526 
    4600    309.84227    1770.9139   -656.77552    6.7909203    6.2039379    27.755979    2.5686328     1.360124   0.52766063    74.581961   -11748.176    16986.336 
    4700    289.15954    3822.4134   -656.86259    6.7797425    6.1937262    27.710292    2.5644048    1.3578852    0.5267921   -117.06541    913.08113    10671.224 
    4800    262.04838   -3039.7711   -657.37424    6.7992327    6.2115318    27.789953    2.5717769    1.3617888   0.52830651    -1428.552   -8805.0658    1114.3045 
    4900    286.05752    3615.8166   -657.56154    6.8087107    6.2201906    27.828692    2.5753619    1.3636871   0.52904296    2910.2824   -3176.4507    11113.618 
    5000    303.19921   -2246.4905   -657.41011     6.781284    6.1951345    27.716593    2.5649879    1.3581939   0.52691188    696.38802   -4451.4523   -2984.4074 
    5100    348.09689   -10753.736    -656.0607    6.8298458    6.2394988    27.915075    2.5833561    1.3679202   0.53068517   -5000.5436   -22388.989   -4871.6764 
    5200    262.12142    18379.634   -657.47642     6.754174    6.1703678    27.605788    2.5547336    1.3527642   0.52480541    18291.423    10437.824    26409.654 
    5300    318.76234   -6631.1264   -656.74929      6.84333    6.2518175    27.970188    2.5884565    1.3706209   0.53173291   -9249.1918   -10113.749   -530.43806 
    5400    340.88189   -3025.2987   -656.40413    6.8130565    6.2241607    27.846454    2.5770057    1.3645575   0.52938063   -2309.1322   -12179.989     5413.225 
    5500    280.26491    6460.3905   -657.33013    6.7545909    6.1707487    27.607492    2.5548913    1.3528477    0.5248378    10863.627    4279.0022    4238.5424 
    5600    288.91034    819.43567     -657.112    6.7991094    6.2114192    27.789449    2.5717303    1.3617641   0.52829693    11548.235   -8338.2886   -751.63951 
    5700    296.74704    -767.8306   -656.67612    6.7741584    6.1886248    27.687469    2.5622926    1.3567668   0.52635821    6426.4517   -5914.3694   -2815.5741 
    5800    305.01606   -7015.5428   -656.87035    6.7876311     6.200933    27.742535    2.5673886    1.3594652   0.52740505   -1566.1205   -10175.669   -9304.8391 
    5900    301.64495     8266.533   -657.10933    6.7710426    6.1857784    27.674734    2.5611141    1.3561427   0.52611611    7397.9381    6806.1493    10595.511 
    6000    259.76362   -8636.0995    -657.4057    6.8038401    6.2157409    27.808784    2.5735196    1.3627116    0.5286645   -2702.3167   -11157.028   -12048.954 
    6100    313.37974   -313.07041   -657.22604    6.7878068    6.2010935    27.743253    2.5674551    1.3595004   0.52741871    1966.8574   -2181.7278   -724.34084 
    6200    337.44695   -3857.6578   -656.34824    6.7915945    6.2045538    27.758734    2.5688878     1.360259   0.52771301   -9862.8086   -5741.4888     4031.324 
    6300    293.51014   -3656.2402   -657.25944    6.7899053    6.2030106     27.75183    2.5682488    1.3599207   0.52758176    -6748.614   -3415.7532   -804.35353 
    6400    294.58615    4573.8421   -657.12726    6.7911138    6.2041147    27.756769     2.568706    1.3601627   0.52767566   -938.33842     804.3118    13855.553 
    6500    278.54781    7491.1678   -657.91739    6.7453923    6.1623452    27.569895     2.551412    1.3510053   0.52412306    5914.0202     5430.708    11128.775 
    6600    309.41523   -1672.9765   -657.16194    6.7886784    6.2018898    27.746815    2.5677848    1.3596749   0.52748643   -3464.5538   -2858.9426    1304.5671 
    6700    281.31545   -7700.8165   -656.50163     6.823518     6.233718    27.889212    2.5809627    1.3666528    0.5301935   -5840.1398   -20439.962    3177.6528 
    6800    303.11336    7633.5107   -657.06164    6.7499495    6.1665084    27.588522    2.5531357    1.3519181   0.52447716    8599.7339    2322.2003    11978.598 
    6900    317.61287    -8327.376   -656.25037    6.7905792    6.2036263    27.754584    2.5685037    1.3600556   0.52763413   -9752.7822   -7036.7155   -8192.6302 
    7000    302.97576    3562.3743    -657.8797    6.7731843     6.187735    27.683488    2.5619242    1.3565717   0.52628253    4092.8136     1873.312    4720.9973 
    7100    307.25313    6750.0721   -657.03338    6.7981731    6.2105638    27.785622    2.5713761    1.3615766   0.52822417    4154.7029    -904.2373    16999.751 
    7200    296.16044   -5104.8838   -656.69309    6.8088972    6.2203609    27.829454    2.5754324    1.3637245   0.52905744    834.77103   -10101.178   -6048.2445 
    7300    269.07309    4506.4619   -657.33888    6.7893164    6.2024726    27.749423    2.5680261    1.3598027     0.527536    1516.7523    11730.006    272.62759 
    7400    315.66396   -1085.2574    -656.7234     6.800242    6.2124539    27.794078    2.5721587     1.361991   0.52838493   -4304.1766    2169.8111   -1121.4066 
    7500    363.93567   -10732.722   -655.62503    6.8362103    6.2453132    27.941088    2.5857635    1.3691949    0.5311797   -5099.7106   -11385.987    -15712.47 
    7600    317.73444    7928.3307   -656.08377    6.8080818     6.219616    27.826121     2.575124    1.3635612   0.52899409   -142.13101    4332.5289    19594.594 
    7700    323.27218    2221.1928   -656.88553    6.7630521    6.1784785    27.642075    2.5580917    1.3545424   0.52549524    7451.4552   -5924.8085    5136.9317 
    7800    316.08695    -6160.479   -656.78906    6.8151256     6.226051    27.854911    2.5777883    1.3649719    0.5295414   -5845.3349   -9925.6755   -2710.4266 
    7900    320.35045   -8994.0198   -655.36157    6.8302003    6.2398226    27.916524    2.5834902    1.3679912   0.53071271    2268.8631   -17784.958   -11465.964 
    8000    304.98105   -4011.8312   -656.90146    6.7958941    6.2084818    27.776308    2.5705141    1.3611201    0.5280471    3896.1305   -6000.9906   -9930.6336 
    8100    287.00454   -5689.4628   -656.94444    6.8259232    6.2359153    27.899043    2.5818724    1.3671345   0.53038039   -6098.4286   -11766.334    796.37408 
    8200    313.02646    4622.9414    -656.8638    6.8014201    6.2135301    27.798893    2.5726042    1.3622269   0.52847647    3893.7405    -6950.233    16925.317 
    8300    297.60464   -5612.1209   -656.86466    6.8028366    6.2148242    27.804683      2.57314    1.3625106   0.52858654   -3730.1025   -23589.711    10483.451 
    8400    314.27002    4834.1935   -656.73494    6.7806289    6.1945361    27.713915    2.5647401    1.3580627   0.52686098    10820.625   -1887.9094    5569.8655 
    8500    279.81164   -2465.1866   -656.89934    6.7962807     6.208835    27.777888    2.5706603    1.3611976   0.52807714    8152.6657   -5485.4199   -10062.806 
    8600    274.41097   -5002.3701   -657.17132    6.7775064    6.1916834    27.701153     2.563559    1.3574373   0.52661836   -906.86129   -14933.388    833.13882 
    8700    295.21741    3584.5526   -657.12477    6.8032243    6.2151784    27.806267    2.5732867    1.3625883   0.52861666   -5307.6822    1832.3686    14228.971 
    8800    286.57716   -1018.4758   -657.39569    6.7932848     6.206098    27.765643    2.5695271    1.3605975   0.52784435   -5445.8086   -1942.2228    4332.6039 
    8900    289.69041    10764.014   -657.59777    6.7771839    6.1913888    27.699835     2.563437    1.3573728    0.5265933    18731.491   -2863.5994    16424.149 
    9000    275.43891    676.99431   -656.99375    6.8000161    6.2122475    27.793155    2.5720732    1.3619457   0.52836738   -2448.4708    975.65346    3503.8002 
    9100    340.53108   -7798.8036   -656.17382     6.797682    6.2101151    27.783615    2.5711903    1.3614782   0.52818601   -212.83965   -8743.7595   -14439.812 
    9200    321.65653    1232.3642   -656.31037    6.7974835    6.2099338    27.782804    2.5711152    1.3614385   0.52817059    12961.684   -3683.8338   -5580.7575 
    9300    283.68042   -2481.6549   -657.18212    6.7737806    6.1882797    27.685925    2.5621497    1.3566911   0.52632885    1366.8258   -8320.8826   -490.90796 
    9400    274.94889   -8793.4456   -657.79678    6.7774731     6.191653    27.701017    2.5635464    1.3574307   0.52661577    4059.1145   -19749.383   -10690.068 
    9500    242.22537    8939.9216   -658.26713    6.7579362    6.1738049    27.621165    2.5561567    1.3535177   0.52509774    11703.883    11638.092     3477.789 
    9600    351.04075    -2373.888   -656.52639    6.8080847    6.2196187    27.826133    2.5751251    1.3635617   0.52899432     -4001.23   -4878.8165    1758.3824 
    9700    319.13349   -13948.953   -656.29269    6.8165408    6.2273438    27.860695    2.5783236    1.3652554   0.52965136   -17956.892    -9606.582   -14283.386 
    9800    304.17108    5908.7299   -657.18147    6.7912881    6.2042739    27.757482    2.5687719    1.3601976    0.5276892     2910.207    7645.1073    7170.8753 
    9900    297.88763   -2677.7853   -656.85631    6.8040422    6.2159256    27.809611    2.5735961    1.3627521   0.52868021   -2909.4825   -4776.6439    -347.2295 
   10000    321.99681    7737.2465    -656.4807    6.7792405    6.1932677     27.70824    2.5642149    1.3577847    0.5267531    11234.585     1959.518    10017.637 
   10100    263.91669    5063.6133   -657.14063    6.8116615    6.2228863    27.840752     2.576478    1.3642781   0.52927224    11347.832    473.40391    3369.6043 
   10138    282.24706   -3841.2525   -656.96994     6.817353    6.2280859    27.864015    2.5786308     1.365418   0.52971447   -2984.3774   -13137.533    4598.1531 
Loop time of 1021.03 on 1 procs for 10000 steps with 104 atoms

Performance: 0.846 ns/day, 28.362 hours/ns, 9.794 timesteps/s
99.9% CPU use with 1 MPI tasks x 1 OpenMP threads

MPI task timing breakdown:
Section |  min time  |  avg time  |  max time  |%varavg| %total
---------------------------------------------------------------
Pair    | 1020.7     | 1020.7     | 1020.7     |   0.0 | 99.97
Neigh   | 0.092914   | 0.092914   | 0.092914   |   0.0 |  0.01
Comm    | 0.040982   | 0.040982   | 0.040982   |   0.0 |  0.00
Output  | 0.0038166  | 0.0038166  | 0.0038166  |   0.0 |  0.00
Modify  | 0.12222    | 0.12222    | 0.12222    |   0.0 |  0.01
Other   |            | 0.01997    |            |       |  0.00

Nlocal:        104.000 ave         104 max         104 min
Histogram: 1 0 0 0 0 0 0 0 0 0
Nghost:        1209.00 ave        1209 max        1209 min
Histogram: 1 0 0 0 0 0 0 0 0 0
Neighs:         0.00000 ave           0 max           0 min
Histogram: 1 0 0 0 0 0 0 0 0 0
FullNghs:      8086.00 ave        8086 max        8086 min
Histogram: 1 0 0 0 0 0 0 0 0 0

Total # of neighbors = 8086
Ave neighs/atom = 77.750000
Neighbor list builds = 166
Dangerous builds = 0

unfix 123

# Compute initial state

variable thermostat equal 0
include potential.mod
# NOTE: This script can be modified for different pair styles
# See in.elastic for more info.

# we must undefine any fix ave/* fix before using reset_timestep
if "$(is_defined(fix,avp))" then "unfix avp"
reset_timestep 0

newton off

# Choose potential
# pair_style	sw
# pair_coeff * * Si.sw Si
pair_style	nequip
pair_coeff	* * tob14_l3-deployed.pth Ca Si O H

atom_modify sort 0 0.0
#kspace_style	ewald 1.0e-6# Setup neighbor style

neighbor 2.0 bin
neigh_modify once no every 1 delay 0 check yes



# Setup output

fix avp all ave/time  ${nevery} ${nrepeat} ${nfreq} c_thermo_press mode vector
fix avp all ave/time  10 ${nrepeat} ${nfreq} c_thermo_press mode vector
fix avp all ave/time  10 10 ${nfreq} c_thermo_press mode vector
fix avp all ave/time  10 10 100 c_thermo_press mode vector

#min_style cg
#minimize 1.0e-15 1.0e-15 100000 100000 #设置能量最小化

thermo		${nthermo}
thermo		100
thermo_style custom step temp pe press f_avp[1] f_avp[2] f_avp[3] f_avp[4] f_avp[5] f_avp[6]
thermo_modify norm no

# Setup MD

timestep ${timestep}
timestep 0.0001
fix 4 all nve
if "${thermostat} == 1" then    "fix 5 all langevin ${temp} ${temp} ${tdamp} ${seed}"


run ${nequil}
run 1000
Per MPI rank memory allocation (min/avg/max) = 3.096 | 3.096 | 3.096 Mbytes
Step Temp PotEng Press f_avp[1] f_avp[2] f_avp[3] f_avp[4] f_avp[5] f_avp[6] 
       0    282.24706   -660.72754   -3841.2883            0            0            0            0            0            0 
     100    290.52506   -660.83795   -3859.5981   -146.04051   -8558.4027     8639.621    14112.996    5515.4271   -11904.477 
     200    296.09443   -660.91223   -7657.3487   -5340.4392   -9610.3313    6853.7947   -79.161162     5713.391   -11985.888 
     300    296.14211   -660.91254   -2345.9216   -1176.1411   -7254.0955   -956.40935    -2924.857    4565.3259   -7766.2052 
     400    295.85141     -660.909    1341.4396    9015.4562   -8463.9216     4181.726    10947.871    6099.3548   -6475.7966 
     500    346.29799   -661.58063   -6990.2537    2063.0701   -12932.171    184.31063    7911.8114    8266.9491   -7464.4154 
     600    289.91882    -660.8302    -7434.545   -9426.5068   -10448.739   -11079.825   -4792.3688    6951.6973   -5538.2215 
     700    303.98089   -661.01733    2982.8183    1469.7682   -14066.603   -5849.6265    4121.2273    1748.5184   -4588.4265 
     800    246.89616   -660.25732    8590.1592    10940.377   -9663.4544    6083.0824    16750.345    6112.5694   -8099.6427 
     900    283.09708    -660.7392    2544.9452   -2579.6362   -3074.8271    1262.8921    4732.1633    8763.5522   -9125.8948 
    1000    298.01302   -660.93774    3097.9538   -6151.9676   -1660.3954   -919.70319    966.13659   -462.77925   -9804.5257 
Loop time of 105.855 on 1 procs for 1000 steps with 104 atoms

Performance: 0.082 ns/day, 294.042 hours/ns, 9.447 timesteps/s
99.9% CPU use with 1 MPI tasks x 1 OpenMP threads

MPI task timing breakdown:
Section |  min time  |  avg time  |  max time  |%varavg| %total
---------------------------------------------------------------
Pair    | 105.84     | 105.84     | 105.84     |   0.0 | 99.99
Neigh   | 0.00070643 | 0.00070643 | 0.00070643 |   0.0 |  0.00
Comm    | 0.0037603  | 0.0037603  | 0.0037603  |   0.0 |  0.00
Output  | 0.00035095 | 0.00035095 | 0.00035095 |   0.0 |  0.00
Modify  | 0.0032332  | 0.0032332  | 0.0032332  |   0.0 |  0.00
Other   |            | 0.003016   |            |       |  0.00

Nlocal:        104.000 ave         104 max         104 min
Histogram: 1 0 0 0 0 0 0 0 0 0
Nghost:        1203.00 ave        1203 max        1203 min
Histogram: 1 0 0 0 0 0 0 0 0 0
Neighs:         0.00000 ave           0 max           0 min
Histogram: 1 0 0 0 0 0 0 0 0 0
FullNghs:      8092.00 ave        8092 max        8092 min
Histogram: 1 0 0 0 0 0 0 0 0 0

Total # of neighbors = 8092
Ave neighs/atom = 77.807692
Neighbor list builds = 1
Dangerous builds = 0

if "${adiabatic} == 1" then "variable thermostat equal 0" else "variable thermostat equal 1"
variable thermostat equal 1

print ${thermostat}
print 1
1

include potential.mod
# NOTE: This script can be modified for different pair styles
# See in.elastic for more info.

# we must undefine any fix ave/* fix before using reset_timestep
if "$(is_defined(fix,avp))" then "unfix avp"
unfix avp
reset_timestep 0

newton off

# Choose potential
# pair_style	sw
# pair_coeff * * Si.sw Si
pair_style	nequip
pair_coeff	* * tob14_l3-deployed.pth Ca Si O H

atom_modify sort 0 0.0
#kspace_style	ewald 1.0e-6# Setup neighbor style

neighbor 2.0 bin
neigh_modify once no every 1 delay 0 check yes



# Setup output

fix avp all ave/time  ${nevery} ${nrepeat} ${nfreq} c_thermo_press mode vector
fix avp all ave/time  10 ${nrepeat} ${nfreq} c_thermo_press mode vector
fix avp all ave/time  10 10 ${nfreq} c_thermo_press mode vector
fix avp all ave/time  10 10 100 c_thermo_press mode vector

#min_style cg
#minimize 1.0e-15 1.0e-15 100000 100000 #设置能量最小化

thermo		${nthermo}
thermo		100
thermo_style custom step temp pe press f_avp[1] f_avp[2] f_avp[3] f_avp[4] f_avp[5] f_avp[6]
WARNING: New thermo_style command, previous thermo_modify settings will be lost (src/output.cpp:689)
thermo_modify norm no

# Setup MD

timestep ${timestep}
timestep 0.0001
fix 4 all nve
if "${thermostat} == 1" then    "fix 5 all langevin ${temp} ${temp} ${tdamp} ${seed}"
fix 5 all langevin ${temp} ${temp} ${tdamp} ${seed}
fix 5 all langevin 300 ${temp} ${tdamp} ${seed}
fix 5 all langevin 300 300 ${tdamp} ${seed}
fix 5 all langevin 300 300 0.01 ${seed}
fix 5 all langevin 300 300 0.01 123457


run ${nrun}
run 300
Per MPI rank memory allocation (min/avg/max) = 3.096 | 3.096 | 3.096 Mbytes
Step Temp PotEng Press f_avp[1] f_avp[2] f_avp[3] f_avp[4] f_avp[5] f_avp[6] 
       0    298.01302   -660.93781    3097.3182            0            0            0            0            0            0 
     100    278.42621   -660.69434    5462.0067     1822.251   -8295.0079    6296.0961    7065.0437   -5472.8098    -11267.13 
     200    285.58902   -660.50854    5277.4814     9200.502   -3601.6759    3357.3762    5647.3497    2762.8895   -9297.0727 
     300    292.23595    -660.7572    8750.0268    6053.4152   -1387.6966    8959.0777    3234.0075    2923.8365   -6687.7553 
Loop time of 35.8366 on 1 procs for 300 steps with 104 atoms

Performance: 0.072 ns/day, 331.821 hours/ns, 8.371 timesteps/s
99.9% CPU use with 1 MPI tasks x 1 OpenMP threads

MPI task timing breakdown:
Section |  min time  |  avg time  |  max time  |%varavg| %total
---------------------------------------------------------------
Pair    | 35.831     | 35.831     | 35.831     |   0.0 | 99.98
Neigh   | 0          | 0          | 0          |   0.0 |  0.00
Comm    | 0.0011396  | 0.0011396  | 0.0011396  |   0.0 |  0.00
Output  | 0.00011158 | 0.00011158 | 0.00011158 |   0.0 |  0.00
Modify  | 0.0036612  | 0.0036612  | 0.0036612  |   0.0 |  0.01
Other   |            | 0.0009389  |            |       |  0.00

Nlocal:        104.000 ave         104 max         104 min
Histogram: 1 0 0 0 0 0 0 0 0 0
Nghost:        1193.00 ave        1193 max        1193 min
Histogram: 1 0 0 0 0 0 0 0 0 0
Neighs:         0.00000 ave           0 max           0 min
Histogram: 1 0 0 0 0 0 0 0 0 0
FullNghs:      8118.00 ave        8118 max        8118 min
Histogram: 1 0 0 0 0 0 0 0 0 0

Total # of neighbors = 8118
Ave neighs/atom = 78.057692
Neighbor list builds = 0
Dangerous builds = 0

variable pxx0 equal f_avp[1]
variable pyy0 equal f_avp[2]
variable pzz0 equal f_avp[3]
variable pxy0 equal f_avp[4]
variable pxz0 equal f_avp[5]
variable pyz0 equal f_avp[6]

variable tmp equal lx
variable lx0 equal ${tmp}
variable lx0 equal 6.81735301207779
variable tmp equal ly
variable ly0 equal ${tmp}
variable ly0 equal 6.22808585839101
variable tmp equal lz
variable lz0 equal ${tmp}
variable lz0 equal 27.8640146728677

# These formulas define the derivatives w.r.t. strain components
# Constants uses $, variables use v_
variable d1 equal -(v_pxx1-${pxx0})/(v_delta/v_len0)*${cfac}
variable d1 equal -(v_pxx1-6053.41517357525)/(v_delta/v_len0)*${cfac}
variable d1 equal -(v_pxx1-6053.41517357525)/(v_delta/v_len0)*0.0001
variable d2 equal -(v_pyy1-${pyy0})/(v_delta/v_len0)*${cfac}
variable d2 equal -(v_pyy1--1387.6966315479)/(v_delta/v_len0)*${cfac}
variable d2 equal -(v_pyy1--1387.6966315479)/(v_delta/v_len0)*0.0001
variable d3 equal -(v_pzz1-${pzz0})/(v_delta/v_len0)*${cfac}
variable d3 equal -(v_pzz1-8959.077704165)/(v_delta/v_len0)*${cfac}
variable d3 equal -(v_pzz1-8959.077704165)/(v_delta/v_len0)*0.0001
variable d4 equal -(v_pyz1-${pyz0})/(v_delta/v_len0)*${cfac}
variable d4 equal -(v_pyz1--6687.75532259446)/(v_delta/v_len0)*${cfac}
variable d4 equal -(v_pyz1--6687.75532259446)/(v_delta/v_len0)*0.0001
variable d5 equal -(v_pxz1-${pxz0})/(v_delta/v_len0)*${cfac}
variable d5 equal -(v_pxz1-2923.836534462)/(v_delta/v_len0)*${cfac}
variable d5 equal -(v_pxz1-2923.836534462)/(v_delta/v_len0)*0.0001
variable d6 equal -(v_pxy1-${pxy0})/(v_delta/v_len0)*${cfac}
variable d6 equal -(v_pxy1-3234.00746784336)/(v_delta/v_len0)*${cfac}
variable d6 equal -(v_pxy1-3234.00746784336)/(v_delta/v_len0)*0.0001

# Write restart
write_restart restart.equil
System init for write_restart ...

# uxx Perturbation

variable dir equal 1
include displace.mod
# NOTE: This script should not need to be
# modified. See in.elastic for more info.
#
# Find which reference length to use

if "${dir} == 1" then    "variable len0 equal ${lx0}"
variable len0 equal ${lx0}
variable len0 equal 6.81735301207779
if "${dir} == 2" then    "variable len0 equal ${ly0}"
if "${dir} == 3" then    "variable len0 equal ${lz0}"
if "${dir} == 4" then    "variable len0 equal ${lz0}"
if "${dir} == 5" then    "variable len0 equal ${lz0}"
if "${dir} == 6" then    "variable len0 equal ${ly0}"

# Reset box and simulation parameters

clear
OMP_NUM_THREADS environment is not set. Defaulting to 1 thread. (src/comm.cpp:98)
  using 1 OpenMP thread(s) per MPI task
box tilt large
read_restart restart.equil
Reading restart file ...
  restart file = 29 Sep 2021, LAMMPS = 29 Sep 2021
  restoring atom style atomic from restart
  triclinic box = (0.068374240 0.062464220 0.27946049) to (6.8857273 6.2905501 28.143475) with tilt (2.5786308 0.52971447 1.3654180)
  1 by 1 by 1 MPI processor grid
  pair style nequip stores no restart info
  104 atoms
  read_restart CPU = 0.000 seconds
include potential.mod
# NOTE: This script can be modified for different pair styles
# See in.elastic for more info.

# we must undefine any fix ave/* fix before using reset_timestep
if "$(is_defined(fix,avp))" then "unfix avp"
reset_timestep 0

newton off

# Choose potential
# pair_style	sw
# pair_coeff * * Si.sw Si
pair_style	nequip
pair_coeff	* * tob14_l3-deployed.pth Ca Si O H

atom_modify sort 0 0.0
#kspace_style	ewald 1.0e-6# Setup neighbor style

neighbor 2.0 bin
neigh_modify once no every 1 delay 0 check yes



# Setup output

fix avp all ave/time  ${nevery} ${nrepeat} ${nfreq} c_thermo_press mode vector
fix avp all ave/time  10 ${nrepeat} ${nfreq} c_thermo_press mode vector
fix avp all ave/time  10 10 ${nfreq} c_thermo_press mode vector
fix avp all ave/time  10 10 100 c_thermo_press mode vector

#min_style cg
#minimize 1.0e-15 1.0e-15 100000 100000 #设置能量最小化

thermo		${nthermo}
thermo		100
thermo_style custom step temp pe press f_avp[1] f_avp[2] f_avp[3] f_avp[4] f_avp[5] f_avp[6]
thermo_modify norm no

# Setup MD

timestep ${timestep}
timestep 0.0001
fix 4 all nve
if "${thermostat} == 1" then    "fix 5 all langevin ${temp} ${temp} ${tdamp} ${seed}"
fix 5 all langevin ${temp} ${temp} ${tdamp} ${seed}
fix 5 all langevin 300 ${temp} ${tdamp} ${seed}
fix 5 all langevin 300 300 ${tdamp} ${seed}
fix 5 all langevin 300 300 0.01 ${seed}
fix 5 all langevin 300 300 0.01 123457



# Negative deformation

variable delta equal -${up}*${len0}
variable delta equal -0.02*${len0}
variable delta equal -0.02*6.81735301207779
variable deltaxy equal -${up}*xy
variable deltaxy equal -0.02*xy
variable deltaxz equal -${up}*xz
variable deltaxz equal -0.02*xz
variable deltayz equal -${up}*yz
variable deltayz equal -0.02*yz
if "${dir} == 1" then    "change_box all x delta 0 ${delta} xy delta ${deltaxy} xz delta ${deltaxz} remap units box"
change_box all x delta 0 ${delta} xy delta ${deltaxy} xz delta ${deltaxz} remap units box
change_box all x delta 0 -0.136347060241556 xy delta ${deltaxy} xz delta ${deltaxz} remap units box
change_box all x delta 0 -0.136347060241556 xy delta -0.051572615996812 xz delta ${deltaxz} remap units box
change_box all x delta 0 -0.136347060241556 xy delta -0.051572615996812 xz delta -0.0105942894473624 remap units box
Changing box ...
  triclinic box = (0.068374240 0.062464220 0.27946049) to (6.7493802 6.2905501 28.143475) with tilt (2.5786308 0.52971447 1.3654180)
  triclinic box = (0.068374240 0.062464220 0.27946049) to (6.7493802 6.2905501 28.143475) with tilt (2.5270582 0.52971447 1.3654180)
  triclinic box = (0.068374240 0.062464220 0.27946049) to (6.7493802 6.2905501 28.143475) with tilt (2.5270582 0.51912018 1.3654180)
if "${dir} == 2" then    "change_box all y delta 0 ${delta} yz delta ${deltayz} remap units box"
if "${dir} == 3" then    "change_box all z delta 0 ${delta} remap units box"
if "${dir} == 4" then    "change_box all yz delta ${delta} remap units box"
if "${dir} == 5" then    "change_box all xz delta ${delta} remap units box"
if "${dir} == 6" then    "change_box all xy delta ${delta} remap units box"

# Run MD

run ${nequil}
run 1000
Neighbor list info ...
  update every 1 steps, delay 0 steps, check yes
  max neighbors/atom: 2000, page size: 100000
  master list distance cutoff = 6
  ghost atom cutoff = 6
  binsize = 3, bins = 4 3 10
  1 neighbor lists, perpetual/occasional/extra = 1 0 0
  (1) pair nequip, perpetual
      attributes: full, newton off
      pair build: full/bin/atomonly
      stencil: full/bin/3d
      bin: standard
Per MPI rank memory allocation (min/avg/max) = 2.973 | 2.973 | 2.973 Mbytes
Step Temp PotEng Press f_avp[1] f_avp[2] f_avp[3] f_avp[4] f_avp[5] f_avp[6] 
       0    292.23595   -660.33795    34456.386            0            0            0            0            0            0 
     100    265.97196   -660.30603    31997.415    36948.486    16439.855    23531.549    10103.123   -1859.0519   -11073.036 
     200    226.29667   -659.46857    24270.352    34603.259    12121.571      14272.9    6623.4433    3879.1975   -10474.048 
     300    258.01609   -659.67126    24023.657    30517.244    4809.2588    20890.055    6340.6452      1590.53   -7987.1174 
     400    336.04326   -659.69727    29354.815    28987.873    14573.946    27952.828    10849.655    580.99419   -11441.327 
     500     296.2832   -659.78094     26783.73    31343.463    19374.185    21712.006    9668.0612     5562.757   -8840.9444 
     600    327.64377   -659.70587    28303.527    33834.702     8480.756    25361.607    9405.6116    8344.7464   -7236.4778 
     700    341.14316   -660.09546     26567.24    36184.878    13075.136    26369.242    7915.8991    3502.4132   -9750.6896 
     800    318.72668   -660.17847    18789.732    22250.649     13217.21    26827.093    11410.445    3895.0521   -13096.731 
     900    338.96347   -660.28015    8536.3284    17755.518    3918.1546    13242.306    7525.9447    8865.8649   -9324.0425 
    1000    313.25403   -660.31519    22070.009    18469.413    2378.1823    20727.842    5457.2536    5987.9381   -3402.7757 
Loop time of 107.287 on 1 procs for 1000 steps with 104 atoms

Performance: 0.081 ns/day, 298.019 hours/ns, 9.321 timesteps/s
99.9% CPU use with 1 MPI tasks x 1 OpenMP threads

MPI task timing breakdown:
Section |  min time  |  avg time  |  max time  |%varavg| %total
---------------------------------------------------------------
Pair    | 107.27     | 107.27     | 107.27     |   0.0 | 99.98
Neigh   | 0          | 0          | 0          |   0.0 |  0.00
Comm    | 0.0041468  | 0.0041468  | 0.0041468  |   0.0 |  0.00
Output  | 0.00042319 | 0.00042319 | 0.00042319 |   0.0 |  0.00
Modify  | 0.012074   | 0.012074   | 0.012074   |   0.0 |  0.01
Other   |            | 0.003022   |            |       |  0.00

Nlocal:        104.000 ave         104 max         104 min
Histogram: 1 0 0 0 0 0 0 0 0 0
Nghost:        1247.00 ave        1247 max        1247 min
Histogram: 1 0 0 0 0 0 0 0 0 0
Neighs:         0.00000 ave           0 max           0 min
Histogram: 1 0 0 0 0 0 0 0 0 0
FullNghs:      8248.00 ave        8248 max        8248 min
Histogram: 1 0 0 0 0 0 0 0 0 0

Total # of neighbors = 8248
Ave neighs/atom = 79.307692
Neighbor list builds = 0
Dangerous builds = 0
include potential.mod
# NOTE: This script can be modified for different pair styles
# See in.elastic for more info.

# we must undefine any fix ave/* fix before using reset_timestep
if "$(is_defined(fix,avp))" then "unfix avp"
unfix avp
reset_timestep 0

newton off

# Choose potential
# pair_style	sw
# pair_coeff * * Si.sw Si
pair_style	nequip
pair_coeff	* * tob14_l3-deployed.pth Ca Si O H

atom_modify sort 0 0.0
#kspace_style	ewald 1.0e-6# Setup neighbor style

neighbor 2.0 bin
neigh_modify once no every 1 delay 0 check yes



# Setup output

fix avp all ave/time  ${nevery} ${nrepeat} ${nfreq} c_thermo_press mode vector
fix avp all ave/time  10 ${nrepeat} ${nfreq} c_thermo_press mode vector
fix avp all ave/time  10 10 ${nfreq} c_thermo_press mode vector
fix avp all ave/time  10 10 100 c_thermo_press mode vector

#min_style cg
#minimize 1.0e-15 1.0e-15 100000 100000 #设置能量最小化

thermo		${nthermo}
thermo		100
thermo_style custom step temp pe press f_avp[1] f_avp[2] f_avp[3] f_avp[4] f_avp[5] f_avp[6]
WARNING: New thermo_style command, previous thermo_modify settings will be lost (src/output.cpp:689)
thermo_modify norm no

# Setup MD

timestep ${timestep}
timestep 0.0001
fix 4 all nve
if "${thermostat} == 1" then    "fix 5 all langevin ${temp} ${temp} ${tdamp} ${seed}"
fix 5 all langevin ${temp} ${temp} ${tdamp} ${seed}
fix 5 all langevin 300 ${temp} ${tdamp} ${seed}
fix 5 all langevin 300 300 ${tdamp} ${seed}
fix 5 all langevin 300 300 0.01 ${seed}
fix 5 all langevin 300 300 0.01 123457


run ${nrun}
run 300
Per MPI rank memory allocation (min/avg/max) = 2.973 | 2.973 | 2.973 Mbytes
Step Temp PotEng Press f_avp[1] f_avp[2] f_avp[3] f_avp[4] f_avp[5] f_avp[6] 
       0    313.25403   -660.31512    22069.919            0            0            0            0            0            0 
     100    273.40287   -660.41351    25188.195    26246.531    10117.497    24584.207    8508.4758    1382.7001    -8360.763 
     200    243.87476   -659.87561     26179.62    34052.984    15119.822    20586.834    4493.8074    2661.1077   -12716.368 
     300    265.28084   -659.91595    27722.304    30012.739    12365.838    30349.683    2541.9631    3434.0126   -8873.3593 
Loop time of 36.4964 on 1 procs for 300 steps with 104 atoms

Performance: 0.071 ns/day, 337.929 hours/ns, 8.220 timesteps/s
99.9% CPU use with 1 MPI tasks x 1 OpenMP threads

MPI task timing breakdown:
Section |  min time  |  avg time  |  max time  |%varavg| %total
---------------------------------------------------------------
Pair    | 36.491     | 36.491     | 36.491     |   0.0 | 99.98
Neigh   | 0          | 0          | 0          |   0.0 |  0.00
Comm    | 0.0011957  | 0.0011957  | 0.0011957  |   0.0 |  0.00
Output  | 0.0001049  | 0.0001049  | 0.0001049  |   0.0 |  0.00
Modify  | 0.0035398  | 0.0035398  | 0.0035398  |   0.0 |  0.01
Other   |            | 0.0009067  |            |       |  0.00

Nlocal:        104.000 ave         104 max         104 min
Histogram: 1 0 0 0 0 0 0 0 0 0
Nghost:        1210.00 ave        1210 max        1210 min
Histogram: 1 0 0 0 0 0 0 0 0 0
Neighs:         0.00000 ave           0 max           0 min
Histogram: 1 0 0 0 0 0 0 0 0 0
FullNghs:      8274.00 ave        8274 max        8274 min
Histogram: 1 0 0 0 0 0 0 0 0 0

Total # of neighbors = 8274
Ave neighs/atom = 79.557692
Neighbor list builds = 0
Dangerous builds = 0

# Obtain new stress tensor

variable pxx1 equal f_avp[1]
variable pyy1 equal f_avp[2]
variable pzz1 equal f_avp[3]
variable pxy1 equal f_avp[4]
variable pxz1 equal f_avp[5]
variable pyz1 equal f_avp[6]

# Compute elastic constant from pressure tensor

variable C1neg equal ${d1}
variable C1neg equal 119.79662046607
variable C2neg equal ${d2}
variable C2neg equal 68.7676728848904
variable C3neg equal ${d3}
variable C3neg equal 106.953028046966
variable C4neg equal ${d4}
variable C4neg equal -10.9280197125026
variable C5neg equal ${d5}
variable C5neg equal 2.55088051036905
variable C6neg equal ${d6}
variable C6neg equal -3.46022197282369

# Reset box and simulation parameters

clear
OMP_NUM_THREADS environment is not set. Defaulting to 1 thread. (src/comm.cpp:98)
  using 1 OpenMP thread(s) per MPI task
box tilt large
read_restart restart.equil
Reading restart file ...
  restart file = 29 Sep 2021, LAMMPS = 29 Sep 2021
  restoring atom style atomic from restart
  triclinic box = (0.068374240 0.062464220 0.27946049) to (6.8857273 6.2905501 28.143475) with tilt (2.5786308 0.52971447 1.3654180)
  1 by 1 by 1 MPI processor grid
  pair style nequip stores no restart info
  104 atoms
  read_restart CPU = 0.000 seconds
include potential.mod
# NOTE: This script can be modified for different pair styles
# See in.elastic for more info.

# we must undefine any fix ave/* fix before using reset_timestep
if "$(is_defined(fix,avp))" then "unfix avp"
reset_timestep 0

newton off

# Choose potential
# pair_style	sw
# pair_coeff * * Si.sw Si
pair_style	nequip
pair_coeff	* * tob14_l3-deployed.pth Ca Si O H

atom_modify sort 0 0.0
#kspace_style	ewald 1.0e-6# Setup neighbor style

neighbor 2.0 bin
neigh_modify once no every 1 delay 0 check yes



# Setup output

fix avp all ave/time  ${nevery} ${nrepeat} ${nfreq} c_thermo_press mode vector
fix avp all ave/time  10 ${nrepeat} ${nfreq} c_thermo_press mode vector
fix avp all ave/time  10 10 ${nfreq} c_thermo_press mode vector
fix avp all ave/time  10 10 100 c_thermo_press mode vector

#min_style cg
#minimize 1.0e-15 1.0e-15 100000 100000 #设置能量最小化

thermo		${nthermo}
thermo		100
thermo_style custom step temp pe press f_avp[1] f_avp[2] f_avp[3] f_avp[4] f_avp[5] f_avp[6]
thermo_modify norm no

# Setup MD

timestep ${timestep}
timestep 0.0001
fix 4 all nve
if "${thermostat} == 1" then    "fix 5 all langevin ${temp} ${temp} ${tdamp} ${seed}"
fix 5 all langevin ${temp} ${temp} ${tdamp} ${seed}
fix 5 all langevin 300 ${temp} ${tdamp} ${seed}
fix 5 all langevin 300 300 ${tdamp} ${seed}
fix 5 all langevin 300 300 0.01 ${seed}
fix 5 all langevin 300 300 0.01 123457



# Positive deformation

variable delta equal ${up}*${len0}
variable delta equal 0.02*${len0}
variable delta equal 0.02*6.81735301207779
variable deltaxy equal ${up}*xy
variable deltaxy equal 0.02*xy
variable deltaxz equal ${up}*xz
variable deltaxz equal 0.02*xz
variable deltayz equal ${up}*yz
variable deltayz equal 0.02*yz
if "${dir} == 1" then    "change_box all x delta 0 ${delta} xy delta ${deltaxy} xz delta ${deltaxz} remap units box"
change_box all x delta 0 ${delta} xy delta ${deltaxy} xz delta ${deltaxz} remap units box
change_box all x delta 0 0.136347060241556 xy delta ${deltaxy} xz delta ${deltaxz} remap units box
change_box all x delta 0 0.136347060241556 xy delta 0.051572615996812 xz delta ${deltaxz} remap units box
change_box all x delta 0 0.136347060241556 xy delta 0.051572615996812 xz delta 0.0105942894473624 remap units box
Changing box ...
  triclinic box = (0.068374240 0.062464220 0.27946049) to (7.0220743 6.2905501 28.143475) with tilt (2.5786308 0.52971447 1.3654180)
  triclinic box = (0.068374240 0.062464220 0.27946049) to (7.0220743 6.2905501 28.143475) with tilt (2.6302034 0.52971447 1.3654180)
  triclinic box = (0.068374240 0.062464220 0.27946049) to (7.0220743 6.2905501 28.143475) with tilt (2.6302034 0.54030876 1.3654180)
if "${dir} == 2" then    "change_box all y delta 0 ${delta} yz delta ${deltayz} remap units box"
if "${dir} == 3" then    "change_box all z delta 0 ${delta} remap units box"
if "${dir} == 4" then    "change_box all yz delta ${delta} remap units box"
if "${dir} == 5" then    "change_box all xz delta ${delta} remap units box"
if "${dir} == 6" then    "change_box all xy delta ${delta} remap units box"

# Run MD

run ${nequil}
run 1000
Neighbor list info ...
  update every 1 steps, delay 0 steps, check yes
  max neighbors/atom: 2000, page size: 100000
  master list distance cutoff = 6
  ghost atom cutoff = 6
  binsize = 3, bins = 4 3 10
  1 neighbor lists, perpetual/occasional/extra = 1 0 0
  (1) pair nequip, perpetual
      attributes: full, newton off
      pair build: full/bin/atomonly
      stencil: full/bin/3d
      bin: standard
Per MPI rank memory allocation (min/avg/max) = 2.971 | 2.971 | 2.971 Mbytes
Step Temp PotEng Press f_avp[1] f_avp[2] f_avp[3] f_avp[4] f_avp[5] f_avp[6] 
       0    292.23595   -660.53375   -14106.917            0            0            0            0            0            0 
     100    268.18033    -660.4599   -5159.7369   -24708.781   -8798.2291    3069.2535     6739.532   -1757.0151   -9855.1488 
     200    229.54357   -659.50305   -1419.6363   -8360.4697   -7556.4394   -1957.7861     9867.276    2804.8565   -9520.1994 
     300    261.77528   -659.65955    118.19009   -8609.6503   -11795.607    7693.5514    9599.6746    1084.7246   -7389.7877 
     400    335.73882   -659.58289    5364.3948   -11604.891   -2549.8471    14752.486    11471.767    421.41511   -10043.024 
     500    295.71218   -659.71228    3096.0701   -8522.1031    1071.3434    8252.7926    11145.176    4658.5067   -7621.7527 
     600    328.42615   -659.64471     4399.273   -4655.4658   -9603.1203    10413.213    11438.041    7874.4687   -5993.6245 
     700    338.84144   -659.94849    3390.9418   -1522.7476   -4760.2421    11856.331    9007.2174    3954.3735   -8481.1485 
     800    314.78756   -659.93158   -3822.6983   -14359.765   -4382.1913    13401.995    11803.319    3688.0619   -12187.914 
     900    338.84321   -660.09009   -13851.028   -19124.403   -13116.995    1368.4353     8263.085     8359.426   -8605.0913 
    1000    312.12076   -660.12067   -1758.6338    -18937.19   -14954.148    8100.6862    6446.6733    6142.2609   -2936.9626 
Loop time of 103.164 on 1 procs for 1000 steps with 104 atoms

Performance: 0.084 ns/day, 286.567 hours/ns, 9.693 timesteps/s
99.9% CPU use with 1 MPI tasks x 1 OpenMP threads

MPI task timing breakdown:
Section |  min time  |  avg time  |  max time  |%varavg| %total
---------------------------------------------------------------
Pair    | 103.14     | 103.14     | 103.14     |   0.0 | 99.98
Neigh   | 0          | 0          | 0          |   0.0 |  0.00
Comm    | 0.0040648  | 0.0040648  | 0.0040648  |   0.0 |  0.00
Output  | 0.00042129 | 0.00042129 | 0.00042129 |   0.0 |  0.00
Modify  | 0.012007   | 0.012007   | 0.012007   |   0.0 |  0.01
Other   |            | 0.003089   |            |       |  0.00

Nlocal:        104.000 ave         104 max         104 min
Histogram: 1 0 0 0 0 0 0 0 0 0
Nghost:        1202.00 ave        1202 max        1202 min
Histogram: 1 0 0 0 0 0 0 0 0 0
Neighs:         0.00000 ave           0 max           0 min
Histogram: 1 0 0 0 0 0 0 0 0 0
FullNghs:      7924.00 ave        7924 max        7924 min
Histogram: 1 0 0 0 0 0 0 0 0 0

Total # of neighbors = 7924
Ave neighs/atom = 76.192308
Neighbor list builds = 0
Dangerous builds = 0
include potential.mod
# NOTE: This script can be modified for different pair styles
# See in.elastic for more info.

# we must undefine any fix ave/* fix before using reset_timestep
if "$(is_defined(fix,avp))" then "unfix avp"
unfix avp
reset_timestep 0

newton off

# Choose potential
# pair_style	sw
# pair_coeff * * Si.sw Si
pair_style	nequip
pair_coeff	* * tob14_l3-deployed.pth Ca Si O H

atom_modify sort 0 0.0
#kspace_style	ewald 1.0e-6# Setup neighbor style

neighbor 2.0 bin
neigh_modify once no every 1 delay 0 check yes



# Setup output

fix avp all ave/time  ${nevery} ${nrepeat} ${nfreq} c_thermo_press mode vector
fix avp all ave/time  10 ${nrepeat} ${nfreq} c_thermo_press mode vector
fix avp all ave/time  10 10 ${nfreq} c_thermo_press mode vector
fix avp all ave/time  10 10 100 c_thermo_press mode vector

#min_style cg
#minimize 1.0e-15 1.0e-15 100000 100000 #设置能量最小化

thermo		${nthermo}
thermo		100
thermo_style custom step temp pe press f_avp[1] f_avp[2] f_avp[3] f_avp[4] f_avp[5] f_avp[6]
WARNING: New thermo_style command, previous thermo_modify settings will be lost (src/output.cpp:689)
thermo_modify norm no

# Setup MD

timestep ${timestep}
timestep 0.0001
fix 4 all nve
if "${thermostat} == 1" then    "fix 5 all langevin ${temp} ${temp} ${tdamp} ${seed}"
fix 5 all langevin ${temp} ${temp} ${tdamp} ${seed}
fix 5 all langevin 300 ${temp} ${tdamp} ${seed}
fix 5 all langevin 300 300 ${tdamp} ${seed}
fix 5 all langevin 300 300 0.01 ${seed}
fix 5 all langevin 300 300 0.01 123457


run ${nrun}
run 300
Per MPI rank memory allocation (min/avg/max) = 2.971 | 2.971 | 2.971 Mbytes
Step Temp PotEng Press f_avp[1] f_avp[2] f_avp[3] f_avp[4] f_avp[5] f_avp[6] 
       0    312.12076   -660.12067   -1758.6402            0            0            0            0            0            0 
     100    272.94407   -660.17175    1793.8235   -11783.436   -7462.4736    11642.871     9494.468    1832.3424   -7371.1232 
     200     246.7239   -659.71326    3586.0398    -3519.796   -1845.9206    8258.2038    5927.1628    2795.2505   -11754.157 
     300    263.65794   -659.67188    5543.3362   -6450.4121   -4539.7011    17465.871    3887.5101    3475.6379   -8475.8881 
Loop time of 35.2614 on 1 procs for 300 steps with 104 atoms

Performance: 0.074 ns/day, 326.494 hours/ns, 8.508 timesteps/s
99.9% CPU use with 1 MPI tasks x 1 OpenMP threads

MPI task timing breakdown:
Section |  min time  |  avg time  |  max time  |%varavg| %total
---------------------------------------------------------------
Pair    | 35.255     | 35.255     | 35.255     |   0.0 | 99.98
Neigh   | 0          | 0          | 0          |   0.0 |  0.00
Comm    | 0.0012355  | 0.0012355  | 0.0012355  |   0.0 |  0.00
Output  | 0.00012374 | 0.00012374 | 0.00012374 |   0.0 |  0.00
Modify  | 0.003679   | 0.003679   | 0.003679   |   0.0 |  0.01
Other   |            | 0.0009568  |            |       |  0.00

Nlocal:        104.000 ave         104 max         104 min
Histogram: 1 0 0 0 0 0 0 0 0 0
Nghost:        1161.00 ave        1161 max        1161 min
Histogram: 1 0 0 0 0 0 0 0 0 0
Neighs:         0.00000 ave           0 max           0 min
Histogram: 1 0 0 0 0 0 0 0 0 0
FullNghs:      7920.00 ave        7920 max        7920 min
Histogram: 1 0 0 0 0 0 0 0 0 0

Total # of neighbors = 7920
Ave neighs/atom = 76.153846
Neighbor list builds = 0
Dangerous builds = 0

# Obtain new stress tensor

variable pxx1 equal f_avp[1]
variable pyy1 equal f_avp[2]
variable pzz1 equal f_avp[3]
variable pxy1 equal f_avp[4]
variable pxz1 equal f_avp[5]
variable pyz1 equal f_avp[6]

# Compute elastic constant from pressure tensor

variable C1pos equal ${d1}
variable C1pos equal 62.519136584224
variable C2pos equal ${d2}
variable C2pos equal 15.760022164442
variable C3pos equal ${d3}
variable C3pos equal -42.5339645145729
variable C4pos equal ${d4}
variable C4pos equal 8.94066376863209
variable C5pos equal ${d5}
variable C5pos equal -2.75900677594774
variable C6pos equal ${d6}
variable C6pos equal -3.2675131105161

# Combine positive and negative

variable C1${dir} equal 0.5*(${C1neg}+${C1pos})
variable C11 equal 0.5*(${C1neg}+${C1pos})
variable C11 equal 0.5*(119.79662046607+${C1pos})
variable C11 equal 0.5*(119.79662046607+62.519136584224)
variable C2${dir} equal 0.5*(${C2neg}+${C2pos})
variable C21 equal 0.5*(${C2neg}+${C2pos})
variable C21 equal 0.5*(68.7676728848904+${C2pos})
variable C21 equal 0.5*(68.7676728848904+15.760022164442)
variable C3${dir} equal 0.5*(${C3neg}+${C3pos})
variable C31 equal 0.5*(${C3neg}+${C3pos})
variable C31 equal 0.5*(106.953028046966+${C3pos})
variable C31 equal 0.5*(106.953028046966+-42.5339645145729)
variable C4${dir} equal 0.5*(${C4neg}+${C4pos})
variable C41 equal 0.5*(${C4neg}+${C4pos})
variable C41 equal 0.5*(-10.9280197125026+${C4pos})
variable C41 equal 0.5*(-10.9280197125026+8.94066376863209)
variable C5${dir} equal 0.5*(${C5neg}+${C5pos})
variable C51 equal 0.5*(${C5neg}+${C5pos})
variable C51 equal 0.5*(2.55088051036905+${C5pos})
variable C51 equal 0.5*(2.55088051036905+-2.75900677594774)
variable C6${dir} equal 0.5*(${C6neg}+${C6pos})
variable C61 equal 0.5*(${C6neg}+${C6pos})
variable C61 equal 0.5*(-3.46022197282369+${C6pos})
variable C61 equal 0.5*(-3.46022197282369+-3.2675131105161)

# Delete dir to make sure it is not reused

variable dir delete

# uyy Perturbation

variable dir equal 2
include displace.mod
# NOTE: This script should not need to be
# modified. See in.elastic for more info.
#
# Find which reference length to use

if "${dir} == 1" then    "variable len0 equal ${lx0}"
if "${dir} == 2" then    "variable len0 equal ${ly0}"
variable len0 equal ${ly0}
variable len0 equal 6.22808585839101
if "${dir} == 3" then    "variable len0 equal ${lz0}"
if "${dir} == 4" then    "variable len0 equal ${lz0}"
if "${dir} == 5" then    "variable len0 equal ${lz0}"
if "${dir} == 6" then    "variable len0 equal ${ly0}"

# Reset box and simulation parameters

clear
OMP_NUM_THREADS environment is not set. Defaulting to 1 thread. (src/comm.cpp:98)
  using 1 OpenMP thread(s) per MPI task
box tilt large
read_restart restart.equil
Reading restart file ...
  restart file = 29 Sep 2021, LAMMPS = 29 Sep 2021
  restoring atom style atomic from restart
  triclinic box = (0.068374240 0.062464220 0.27946049) to (6.8857273 6.2905501 28.143475) with tilt (2.5786308 0.52971447 1.3654180)
  1 by 1 by 1 MPI processor grid
  pair style nequip stores no restart info
  104 atoms
  read_restart CPU = 0.000 seconds
include potential.mod
# NOTE: This script can be modified for different pair styles
# See in.elastic for more info.

# we must undefine any fix ave/* fix before using reset_timestep
if "$(is_defined(fix,avp))" then "unfix avp"
reset_timestep 0

newton off

# Choose potential
# pair_style	sw
# pair_coeff * * Si.sw Si
pair_style	nequip
pair_coeff	* * tob14_l3-deployed.pth Ca Si O H

atom_modify sort 0 0.0
#kspace_style	ewald 1.0e-6# Setup neighbor style

neighbor 2.0 bin
neigh_modify once no every 1 delay 0 check yes



# Setup output

fix avp all ave/time  ${nevery} ${nrepeat} ${nfreq} c_thermo_press mode vector
fix avp all ave/time  10 ${nrepeat} ${nfreq} c_thermo_press mode vector
fix avp all ave/time  10 10 ${nfreq} c_thermo_press mode vector
fix avp all ave/time  10 10 100 c_thermo_press mode vector

#min_style cg
#minimize 1.0e-15 1.0e-15 100000 100000 #设置能量最小化

thermo		${nthermo}
thermo		100
thermo_style custom step temp pe press f_avp[1] f_avp[2] f_avp[3] f_avp[4] f_avp[5] f_avp[6]
thermo_modify norm no

# Setup MD

timestep ${timestep}
timestep 0.0001
fix 4 all nve
if "${thermostat} == 1" then    "fix 5 all langevin ${temp} ${temp} ${tdamp} ${seed}"
fix 5 all langevin ${temp} ${temp} ${tdamp} ${seed}
fix 5 all langevin 300 ${temp} ${tdamp} ${seed}
fix 5 all langevin 300 300 ${tdamp} ${seed}
fix 5 all langevin 300 300 0.01 ${seed}
fix 5 all langevin 300 300 0.01 123457



# Negative deformation

variable delta equal -${up}*${len0}
variable delta equal -0.02*${len0}
variable delta equal -0.02*6.22808585839101
variable deltaxy equal -${up}*xy
variable deltaxy equal -0.02*xy
variable deltaxz equal -${up}*xz
variable deltaxz equal -0.02*xz
variable deltayz equal -${up}*yz
variable deltayz equal -0.02*yz
if "${dir} == 1" then    "change_box all x delta 0 ${delta} xy delta ${deltaxy} xz delta ${deltaxz} remap units box"
if "${dir} == 2" then    "change_box all y delta 0 ${delta} yz delta ${deltayz} remap units box"
change_box all y delta 0 ${delta} yz delta ${deltayz} remap units box
change_box all y delta 0 -0.12456171716782 yz delta ${deltayz} remap units box
change_box all y delta 0 -0.12456171716782 yz delta -0.0273083609818218 remap units box
Changing box ...
  triclinic box = (0.068374240 0.062464220 0.27946049) to (6.8857273 6.1659884 28.143475) with tilt (2.5786308 0.52971447 1.3654180)
  triclinic box = (0.068374240 0.062464220 0.27946049) to (6.8857273 6.1659884 28.143475) with tilt (2.5786308 0.52971447 1.3381097)
if "${dir} == 3" then    "change_box all z delta 0 ${delta} remap units box"
if "${dir} == 4" then    "change_box all yz delta ${delta} remap units box"
if "${dir} == 5" then    "change_box all xz delta ${delta} remap units box"
if "${dir} == 6" then    "change_box all xy delta ${delta} remap units box"

# Run MD

run ${nequil}
run 1000
Neighbor list info ...
  update every 1 steps, delay 0 steps, check yes
  max neighbors/atom: 2000, page size: 100000
  master list distance cutoff = 6
  ghost atom cutoff = 6
  binsize = 3, bins = 4 3 10
  1 neighbor lists, perpetual/occasional/extra = 1 0 0
  (1) pair nequip, perpetual
      attributes: full, newton off
      pair build: full/bin/atomonly
      stencil: full/bin/3d
      bin: standard
Per MPI rank memory allocation (min/avg/max) = 2.972 | 2.972 | 2.972 Mbytes
Step Temp PotEng Press f_avp[1] f_avp[2] f_avp[3] f_avp[4] f_avp[5] f_avp[6] 
       0    292.23595   -660.48248    34779.603            0            0            0            0            0            0 
     100    272.60552   -660.41754    33452.825    17896.737    37679.083    25629.343    5627.3809   -1857.8997   -10359.138 
     200    228.17457   -659.53717    26767.956    22700.355    28454.479    17318.712    4894.1583    3381.8929   -9578.0989 
     300    259.92874   -659.76678    25423.331    18136.763    20318.146    23088.039    4435.1759    1206.6346   -7200.7052 
     400    334.97775   -659.76221    30621.912    16266.426    29486.675    29265.386    8311.6881    613.57266   -10595.453 
     500     296.5323   -659.90588    28002.423    20112.262    32964.255    23427.183    7465.7947    5585.9607   -8012.1874 
     600    328.97378   -659.86096    29245.059    23108.704     21101.06    27056.487    7659.1768    8408.0887   -6405.9301 
     700    339.33952   -660.17639    27664.922    25223.532    25968.697    27610.638    5808.2704    3464.4505   -9171.5889 
     800    317.95349   -660.24164    20102.795    11015.494    26645.425    27867.031    8898.1717    3869.8703   -12396.948 
     900    340.69845   -660.38934    9639.1311     6163.232     17347.41    14715.919    5016.0588    8762.1682    -8273.499 
    1000     311.6568   -660.38171    22641.455    6735.2103      15261.7    21556.712    2998.6774    5924.8063   -2603.8419 
Loop time of 107.459 on 1 procs for 1000 steps with 104 atoms

Performance: 0.080 ns/day, 298.497 hours/ns, 9.306 timesteps/s
99.9% CPU use with 1 MPI tasks x 1 OpenMP threads

MPI task timing breakdown:
Section |  min time  |  avg time  |  max time  |%varavg| %total
---------------------------------------------------------------
Pair    | 107.44     | 107.44     | 107.44     |   0.0 | 99.98
Neigh   | 0          | 0          | 0          |   0.0 |  0.00
Comm    | 0.0040035  | 0.0040035  | 0.0040035  |   0.0 |  0.00
Output  | 0.00034118 | 0.00034118 | 0.00034118 |   0.0 |  0.00
Modify  | 0.012074   | 0.012074   | 0.012074   |   0.0 |  0.01
Other   |            | 0.002975   |            |       |  0.00

Nlocal:        104.000 ave         104 max         104 min
Histogram: 1 0 0 0 0 0 0 0 0 0
Nghost:        1240.00 ave        1240 max        1240 min
Histogram: 1 0 0 0 0 0 0 0 0 0
Neighs:         0.00000 ave           0 max           0 min
Histogram: 1 0 0 0 0 0 0 0 0 0
FullNghs:      8276.00 ave        8276 max        8276 min
Histogram: 1 0 0 0 0 0 0 0 0 0

Total # of neighbors = 8276
Ave neighs/atom = 79.576923
Neighbor list builds = 0
Dangerous builds = 0
include potential.mod
# NOTE: This script can be modified for different pair styles
# See in.elastic for more info.

# we must undefine any fix ave/* fix before using reset_timestep
if "$(is_defined(fix,avp))" then "unfix avp"
unfix avp
reset_timestep 0

newton off

# Choose potential
# pair_style	sw
# pair_coeff * * Si.sw Si
pair_style	nequip
pair_coeff	* * tob14_l3-deployed.pth Ca Si O H

atom_modify sort 0 0.0
#kspace_style	ewald 1.0e-6# Setup neighbor style

neighbor 2.0 bin
neigh_modify once no every 1 delay 0 check yes



# Setup output

fix avp all ave/time  ${nevery} ${nrepeat} ${nfreq} c_thermo_press mode vector
fix avp all ave/time  10 ${nrepeat} ${nfreq} c_thermo_press mode vector
fix avp all ave/time  10 10 ${nfreq} c_thermo_press mode vector
fix avp all ave/time  10 10 100 c_thermo_press mode vector

#min_style cg
#minimize 1.0e-15 1.0e-15 100000 100000 #设置能量最小化

thermo		${nthermo}
thermo		100
thermo_style custom step temp pe press f_avp[1] f_avp[2] f_avp[3] f_avp[4] f_avp[5] f_avp[6]
WARNING: New thermo_style command, previous thermo_modify settings will be lost (src/output.cpp:689)
thermo_modify norm no

# Setup MD

timestep ${timestep}
timestep 0.0001
fix 4 all nve
if "${thermostat} == 1" then    "fix 5 all langevin ${temp} ${temp} ${tdamp} ${seed}"
fix 5 all langevin ${temp} ${temp} ${tdamp} ${seed}
fix 5 all langevin 300 ${temp} ${tdamp} ${seed}
fix 5 all langevin 300 300 ${tdamp} ${seed}
fix 5 all langevin 300 300 0.01 ${seed}
fix 5 all langevin 300 300 0.01 123457


run ${nrun}
run 300
Per MPI rank memory allocation (min/avg/max) = 2.972 | 2.972 | 2.972 Mbytes
Step Temp PotEng Press f_avp[1] f_avp[2] f_avp[3] f_avp[4] f_avp[5] f_avp[6] 
       0     311.6568   -660.38177    22641.305            0            0            0            0            0            0 
     100    275.52157   -660.45288    25548.811    14337.145    22499.222    25167.352    6202.6295    1631.0374   -7820.5903 
     200    244.38703   -659.97839    26722.842     22520.43    27430.517    21561.745     2272.143     2766.602   -11863.648 
     300    267.01074   -660.00476    28346.121     18444.51    24057.849    31857.732       274.21    3584.4733   -7930.2207 
Loop time of 36.5224 on 1 procs for 300 steps with 104 atoms

Performance: 0.071 ns/day, 338.170 hours/ns, 8.214 timesteps/s
99.9% CPU use with 1 MPI tasks x 1 OpenMP threads

MPI task timing breakdown:
Section |  min time  |  avg time  |  max time  |%varavg| %total
---------------------------------------------------------------
Pair    | 36.516     | 36.516     | 36.516     |   0.0 | 99.98
Neigh   | 0          | 0          | 0          |   0.0 |  0.00
Comm    | 0.0012228  | 0.0012228  | 0.0012228  |   0.0 |  0.00
Output  | 0.000144   | 0.000144   | 0.000144   |   0.0 |  0.00
Modify  | 0.0035987  | 0.0035987  | 0.0035987  |   0.0 |  0.01
Other   |            | 0.0009084  |            |       |  0.00

Nlocal:        104.000 ave         104 max         104 min
Histogram: 1 0 0 0 0 0 0 0 0 0
Nghost:        1213.00 ave        1213 max        1213 min
Histogram: 1 0 0 0 0 0 0 0 0 0
Neighs:         0.00000 ave           0 max           0 min
Histogram: 1 0 0 0 0 0 0 0 0 0
FullNghs:      8294.00 ave        8294 max        8294 min
Histogram: 1 0 0 0 0 0 0 0 0 0

Total # of neighbors = 8294
Ave neighs/atom = 79.750000
Neighbor list builds = 0
Dangerous builds = 0

# Obtain new stress tensor

variable pxx1 equal f_avp[1]
variable pyy1 equal f_avp[2]
variable pzz1 equal f_avp[3]
variable pxy1 equal f_avp[4]
variable pxz1 equal f_avp[5]
variable pyz1 equal f_avp[6]

# Compute elastic constant from pressure tensor

variable C1neg equal ${d1}
variable C1neg equal 61.9554737393319
variable C2neg equal ${d2}
variable C2neg equal 127.227730610614
variable C3neg equal ${d3}
variable C3neg equal 114.493269219833
variable C4neg equal ${d4}
variable C4neg equal -6.21232664576136
variable C5neg equal ${d5}
variable C5neg equal 3.30318375716965
variable C6neg equal ${d6}
variable C6neg equal -14.7989873283304

# Reset box and simulation parameters

clear
OMP_NUM_THREADS environment is not set. Defaulting to 1 thread. (src/comm.cpp:98)
  using 1 OpenMP thread(s) per MPI task
box tilt large
read_restart restart.equil
Reading restart file ...
  restart file = 29 Sep 2021, LAMMPS = 29 Sep 2021
  restoring atom style atomic from restart
  triclinic box = (0.068374240 0.062464220 0.27946049) to (6.8857273 6.2905501 28.143475) with tilt (2.5786308 0.52971447 1.3654180)
  1 by 1 by 1 MPI processor grid
  pair style nequip stores no restart info
  104 atoms
  read_restart CPU = 0.000 seconds
include potential.mod
# NOTE: This script can be modified for different pair styles
# See in.elastic for more info.

# we must undefine any fix ave/* fix before using reset_timestep
if "$(is_defined(fix,avp))" then "unfix avp"
reset_timestep 0

newton off

# Choose potential
# pair_style	sw
# pair_coeff * * Si.sw Si
pair_style	nequip
pair_coeff	* * tob14_l3-deployed.pth Ca Si O H

atom_modify sort 0 0.0
#kspace_style	ewald 1.0e-6# Setup neighbor style

neighbor 2.0 bin
neigh_modify once no every 1 delay 0 check yes



# Setup output

fix avp all ave/time  ${nevery} ${nrepeat} ${nfreq} c_thermo_press mode vector
fix avp all ave/time  10 ${nrepeat} ${nfreq} c_thermo_press mode vector
fix avp all ave/time  10 10 ${nfreq} c_thermo_press mode vector
fix avp all ave/time  10 10 100 c_thermo_press mode vector

#min_style cg
#minimize 1.0e-15 1.0e-15 100000 100000 #设置能量最小化

thermo		${nthermo}
thermo		100
thermo_style custom step temp pe press f_avp[1] f_avp[2] f_avp[3] f_avp[4] f_avp[5] f_avp[6]
thermo_modify norm no

# Setup MD

timestep ${timestep}
timestep 0.0001
fix 4 all nve
if "${thermostat} == 1" then    "fix 5 all langevin ${temp} ${temp} ${tdamp} ${seed}"
fix 5 all langevin ${temp} ${temp} ${tdamp} ${seed}
fix 5 all langevin 300 ${temp} ${tdamp} ${seed}
fix 5 all langevin 300 300 ${tdamp} ${seed}
fix 5 all langevin 300 300 0.01 ${seed}
fix 5 all langevin 300 300 0.01 123457



# Positive deformation

variable delta equal ${up}*${len0}
variable delta equal 0.02*${len0}
variable delta equal 0.02*6.22808585839101
variable deltaxy equal ${up}*xy
variable deltaxy equal 0.02*xy
variable deltaxz equal ${up}*xz
variable deltaxz equal 0.02*xz
variable deltayz equal ${up}*yz
variable deltayz equal 0.02*yz
if "${dir} == 1" then    "change_box all x delta 0 ${delta} xy delta ${deltaxy} xz delta ${deltaxz} remap units box"
if "${dir} == 2" then    "change_box all y delta 0 ${delta} yz delta ${deltayz} remap units box"
change_box all y delta 0 ${delta} yz delta ${deltayz} remap units box
change_box all y delta 0 0.12456171716782 yz delta ${deltayz} remap units box
change_box all y delta 0 0.12456171716782 yz delta 0.0273083609818218 remap units box
Changing box ...
  triclinic box = (0.068374240 0.062464220 0.27946049) to (6.8857273 6.4151118 28.143475) with tilt (2.5786308 0.52971447 1.3654180)
  triclinic box = (0.068374240 0.062464220 0.27946049) to (6.8857273 6.4151118 28.143475) with tilt (2.5786308 0.52971447 1.3927264)
if "${dir} == 3" then    "change_box all z delta 0 ${delta} remap units box"
if "${dir} == 4" then    "change_box all yz delta ${delta} remap units box"
if "${dir} == 5" then    "change_box all xz delta ${delta} remap units box"
if "${dir} == 6" then    "change_box all xy delta ${delta} remap units box"

# Run MD

run ${nequil}
run 1000
Neighbor list info ...
  update every 1 steps, delay 0 steps, check yes
  max neighbors/atom: 2000, page size: 100000
  master list distance cutoff = 6
  ghost atom cutoff = 6
  binsize = 3, bins = 4 3 10
  1 neighbor lists, perpetual/occasional/extra = 1 0 0
  (1) pair nequip, perpetual
      attributes: full, newton off
      pair build: full/bin/atomonly
      stencil: full/bin/3d
      bin: standard
Per MPI rank memory allocation (min/avg/max) = 2.970 | 2.970 | 2.970 Mbytes
Step Temp PotEng Press f_avp[1] f_avp[2] f_avp[3] f_avp[4] f_avp[5] f_avp[6] 
       0    292.23595   -660.37494   -14251.843            0            0            0            0            0            0 
     100    262.02779   -660.31799   -6423.2017   -7435.6669   -27962.929    1290.0613    10936.278   -1722.8972   -10397.275 
     200    228.44937   -659.39166   -3918.0321    2212.3137   -22515.164   -4683.6603    12038.952    3219.9136   -10294.659 
     300    258.87312   -659.51562   -1476.4572      1357.44   -25772.496    5288.8651    11724.086    1458.7769   -8115.0661 
     400    337.02019    -659.4873    3956.1161   -1066.0064   -16107.926    13336.157    14178.455    465.65662   -10779.502 
     500    294.81339   -659.55273    1836.0777    890.36228   -11140.778    6698.8726    13653.276    4711.0835   -8370.9025 
     600    327.60896   -659.46661    3318.7124    4168.1505   -20628.346    8818.1996    13511.766    7896.7901   -6812.0578 
     700    340.86874    -659.8385    2220.3825    7482.8244   -15873.303    10591.405    11262.934     4030.196   -9167.7667 
     800    315.76079   -659.82007   -5270.2657   -5339.7382    -15956.29    12394.088     14580.38    3719.0971    -12940.21 
     900     338.1653   -659.95062   -15098.337   -9910.3758   -24663.747    59.715358    11190.396    8530.1582   -9619.2327 
    1000    313.56721    -660.0083   -2607.4873   -9615.4249   -25825.272    7101.9291    9373.0541    6297.2019   -3732.6825 
Loop time of 102.591 on 1 procs for 1000 steps with 104 atoms

Performance: 0.084 ns/day, 284.974 hours/ns, 9.747 timesteps/s
99.9% CPU use with 1 MPI tasks x 1 OpenMP threads

MPI task timing breakdown:
Section |  min time  |  avg time  |  max time  |%varavg| %total
---------------------------------------------------------------
Pair    | 102.57     | 102.57     | 102.57     |   0.0 | 99.98
Neigh   | 0          | 0          | 0          |   0.0 |  0.00
Comm    | 0.0038562  | 0.0038562  | 0.0038562  |   0.0 |  0.00
Output  | 0.00036216 | 0.00036216 | 0.00036216 |   0.0 |  0.00
Modify  | 0.011746   | 0.011746   | 0.011746   |   0.0 |  0.01
Other   |            | 0.002985   |            |       |  0.00

Nlocal:        104.000 ave         104 max         104 min
Histogram: 1 0 0 0 0 0 0 0 0 0
Nghost:        1206.00 ave        1206 max        1206 min
Histogram: 1 0 0 0 0 0 0 0 0 0
Neighs:         0.00000 ave           0 max           0 min
Histogram: 1 0 0 0 0 0 0 0 0 0
FullNghs:      7912.00 ave        7912 max        7912 min
Histogram: 1 0 0 0 0 0 0 0 0 0

Total # of neighbors = 7912
Ave neighs/atom = 76.076923
Neighbor list builds = 0
Dangerous builds = 0
include potential.mod
# NOTE: This script can be modified for different pair styles
# See in.elastic for more info.

# we must undefine any fix ave/* fix before using reset_timestep
if "$(is_defined(fix,avp))" then "unfix avp"
unfix avp
reset_timestep 0

newton off

# Choose potential
# pair_style	sw
# pair_coeff * * Si.sw Si
pair_style	nequip
pair_coeff	* * tob14_l3-deployed.pth Ca Si O H

atom_modify sort 0 0.0
#kspace_style	ewald 1.0e-6# Setup neighbor style

neighbor 2.0 bin
neigh_modify once no every 1 delay 0 check yes



# Setup output

fix avp all ave/time  ${nevery} ${nrepeat} ${nfreq} c_thermo_press mode vector
fix avp all ave/time  10 ${nrepeat} ${nfreq} c_thermo_press mode vector
fix avp all ave/time  10 10 ${nfreq} c_thermo_press mode vector
fix avp all ave/time  10 10 100 c_thermo_press mode vector

#min_style cg
#minimize 1.0e-15 1.0e-15 100000 100000 #设置能量最小化

thermo		${nthermo}
thermo		100
thermo_style custom step temp pe press f_avp[1] f_avp[2] f_avp[3] f_avp[4] f_avp[5] f_avp[6]
WARNING: New thermo_style command, previous thermo_modify settings will be lost (src/output.cpp:689)
thermo_modify norm no

# Setup MD

timestep ${timestep}
timestep 0.0001
fix 4 all nve
if "${thermostat} == 1" then    "fix 5 all langevin ${temp} ${temp} ${tdamp} ${seed}"
fix 5 all langevin ${temp} ${temp} ${tdamp} ${seed}
fix 5 all langevin 300 ${temp} ${tdamp} ${seed}
fix 5 all langevin 300 300 ${tdamp} ${seed}
fix 5 all langevin 300 300 0.01 ${seed}
fix 5 all langevin 300 300 0.01 123457


run ${nrun}
run 300
Per MPI rank memory allocation (min/avg/max) = 2.970 | 2.970 | 2.970 Mbytes
Step Temp PotEng Press f_avp[1] f_avp[2] f_avp[3] f_avp[4] f_avp[5] f_avp[6] 
       0    313.56721   -660.00824   -2607.3748            0            0            0            0            0            0 
     100     270.5358   -660.07678    1141.0929   -2530.3706   -17843.879    10978.668    12364.848    1588.7697   -7967.8109 
     200    246.31538   -659.56696    2826.6163    5285.7672    -11964.98    7447.6446    8786.0222    2753.6325   -12577.013 
     300    262.28594   -659.53851    4888.0093    2335.4131   -14081.965    16180.739    6819.7073    3392.0861   -9393.0158 
Loop time of 35.1495 on 1 procs for 300 steps with 104 atoms

Performance: 0.074 ns/day, 325.458 hours/ns, 8.535 timesteps/s
99.9% CPU use with 1 MPI tasks x 1 OpenMP threads

MPI task timing breakdown:
Section |  min time  |  avg time  |  max time  |%varavg| %total
---------------------------------------------------------------
Pair    | 35.144     | 35.144     | 35.144     |   0.0 | 99.98
Neigh   | 0          | 0          | 0          |   0.0 |  0.00
Comm    | 0.0012319  | 0.0012319  | 0.0012319  |   0.0 |  0.00
Output  | 0.00012374 | 0.00012374 | 0.00012374 |   0.0 |  0.00
Modify  | 0.0035672  | 0.0035672  | 0.0035672  |   0.0 |  0.01
Other   |            | 0.0009229  |            |       |  0.00

Nlocal:        104.000 ave         104 max         104 min
Histogram: 1 0 0 0 0 0 0 0 0 0
Nghost:        1171.00 ave        1171 max        1171 min
Histogram: 1 0 0 0 0 0 0 0 0 0
Neighs:         0.00000 ave           0 max           0 min
Histogram: 1 0 0 0 0 0 0 0 0 0
FullNghs:      7934.00 ave        7934 max        7934 min
Histogram: 1 0 0 0 0 0 0 0 0 0

Total # of neighbors = 7934
Ave neighs/atom = 76.288462
Neighbor list builds = 0
Dangerous builds = 0

# Obtain new stress tensor

variable pxx1 equal f_avp[1]
variable pyy1 equal f_avp[2]
variable pzz1 equal f_avp[3]
variable pxy1 equal f_avp[4]
variable pxz1 equal f_avp[5]
variable pyz1 equal f_avp[6]

# Compute elastic constant from pressure tensor

variable C1pos equal ${d1}
variable C1pos equal 18.5900105973775
variable C2pos equal ${d2}
variable C2pos equal 63.4713407291206
variable C3pos equal ${d3}
variable C3pos equal -36.1083085947326
variable C4pos equal ${d4}
variable C4pos equal 13.5263023022462
variable C5pos equal ${d5}
variable C5pos equal -2.341247985207
variable C6pos equal ${d6}
variable C6pos equal -17.9284990673163

# Combine positive and negative

variable C1${dir} equal 0.5*(${C1neg}+${C1pos})
variable C12 equal 0.5*(${C1neg}+${C1pos})
[...]
Comm    | 0.0011845  | 0.0011845  | 0.0011845  |   0.0 |  0.00
Output  | 0.00012994 | 0.00012994 | 0.00012994 |   0.0 |  0.00
Modify  | 0.0036535  | 0.0036535  | 0.0036535  |   0.0 |  0.01
Other   |            | 0.0009501  |            |       |  0.00

Nlocal:        104.000 ave         104 max         104 min
Histogram: 1 0 0 0 0 0 0 0 0 0
Nghost:        1173.00 ave        1173 max        1173 min
Histogram: 1 0 0 0 0 0 0 0 0 0
Neighs:         0.00000 ave           0 max           0 min
Histogram: 1 0 0 0 0 0 0 0 0 0
FullNghs:      8102.00 ave        8102 max        8102 min
Histogram: 1 0 0 0 0 0 0 0 0 0

Total # of neighbors = 8102
Ave neighs/atom = 77.903846
Neighbor list builds = 0
Dangerous builds = 0

# Obtain new stress tensor

variable pxx1 equal f_avp[1]
variable pyy1 equal f_avp[2]
variable pzz1 equal f_avp[3]
variable pxy1 equal f_avp[4]
variable pxz1 equal f_avp[5]
variable pyz1 equal f_avp[6]

# Compute elastic constant from pressure tensor

variable C1neg equal ${d1}
variable C1neg equal 14.9094997047523
variable C2neg equal ${d2}
variable C2neg equal 8.22500413932056
variable C3neg equal ${d3}
variable C3neg equal 60.2096399487561
variable C4neg equal ${d4}
variable C4neg equal -10.9676474708662
variable C5neg equal ${d5}
variable C5neg equal 2.47021097191945
variable C6neg equal ${d6}
variable C6neg equal 38.9252002550773

# Reset box and simulation parameters

clear
OMP_NUM_THREADS environment is not set. Defaulting to 1 thread. (src/comm.cpp:98)
  using 1 OpenMP thread(s) per MPI task
box tilt large
read_restart restart.equil
Reading restart file ...
  restart file = 29 Sep 2021, LAMMPS = 29 Sep 2021
  restoring atom style atomic from restart
  triclinic box = (0.068374240 0.062464220 0.27946049) to (6.8857273 6.2905501 28.143475) with tilt (2.5786308 0.52971447 1.3654180)
  1 by 1 by 1 MPI processor grid
  pair style nequip stores no restart info
  104 atoms
  read_restart CPU = 0.000 seconds
include potential.mod
# NOTE: This script can be modified for different pair styles
# See in.elastic for more info.

# we must undefine any fix ave/* fix before using reset_timestep
if "$(is_defined(fix,avp))" then "unfix avp"
reset_timestep 0

newton off

# Choose potential
# pair_style	sw
# pair_coeff * * Si.sw Si
pair_style	nequip
pair_coeff	* * tob14_l3-deployed.pth Ca Si O H

atom_modify sort 0 0.0
#kspace_style	ewald 1.0e-6# Setup neighbor style

neighbor 2.0 bin
neigh_modify once no every 1 delay 0 check yes



# Setup output

fix avp all ave/time  ${nevery} ${nrepeat} ${nfreq} c_thermo_press mode vector
fix avp all ave/time  10 ${nrepeat} ${nfreq} c_thermo_press mode vector
fix avp all ave/time  10 10 ${nfreq} c_thermo_press mode vector
fix avp all ave/time  10 10 100 c_thermo_press mode vector

#min_style cg
#minimize 1.0e-15 1.0e-15 100000 100000 #设置能量最小化

thermo		${nthermo}
thermo		100
thermo_style custom step temp pe press f_avp[1] f_avp[2] f_avp[3] f_avp[4] f_avp[5] f_avp[6]
thermo_modify norm no

# Setup MD

timestep ${timestep}
timestep 0.0001
fix 4 all nve
if "${thermostat} == 1" then    "fix 5 all langevin ${temp} ${temp} ${tdamp} ${seed}"
fix 5 all langevin ${temp} ${temp} ${tdamp} ${seed}
fix 5 all langevin 300 ${temp} ${tdamp} ${seed}
fix 5 all langevin 300 300 ${tdamp} ${seed}
fix 5 all langevin 300 300 0.01 ${seed}
fix 5 all langevin 300 300 0.01 123457



# Positive deformation

variable delta equal ${up}*${len0}
variable delta equal 0.02*${len0}
variable delta equal 0.02*6.22808585839101
variable deltaxy equal ${up}*xy
variable deltaxy equal 0.02*xy
variable deltaxz equal ${up}*xz
variable deltaxz equal 0.02*xz
variable deltayz equal ${up}*yz
variable deltayz equal 0.02*yz
if "${dir} == 1" then    "change_box all x delta 0 ${delta} xy delta ${deltaxy} xz delta ${deltaxz} remap units box"
if "${dir} == 2" then    "change_box all y delta 0 ${delta} yz delta ${deltayz} remap units box"
if "${dir} == 3" then    "change_box all z delta 0 ${delta} remap units box"
if "${dir} == 4" then    "change_box all yz delta ${delta} remap units box"
if "${dir} == 5" then    "change_box all xz delta ${delta} remap units box"
if "${dir} == 6" then    "change_box all xy delta ${delta} remap units box"
change_box all xy delta ${delta} remap units box
change_box all xy delta 0.12456171716782 remap units box
Changing box ...
  triclinic box = (0.068374240 0.062464220 0.27946049) to (6.8857273 6.2905501 28.143475) with tilt (2.7031925 0.52971447 1.3654180)

# Run MD

run ${nequil}
run 1000
Neighbor list info ...
  update every 1 steps, delay 0 steps, check yes
  max neighbors/atom: 2000, page size: 100000
  master list distance cutoff = 6
  ghost atom cutoff = 6
  binsize = 3, bins = 4 3 10
  1 neighbor lists, perpetual/occasional/extra = 1 0 0
  (1) pair nequip, perpetual
      attributes: full, newton off
      pair build: full/bin/atomonly
      stencil: full/bin/3d
      bin: standard
Per MPI rank memory allocation (min/avg/max) = 2.972 | 2.972 | 2.972 Mbytes
Step Temp PotEng Press f_avp[1] f_avp[2] f_avp[3] f_avp[4] f_avp[5] f_avp[6] 
       0    292.23595   -660.68817    9228.5514            0            0            0            0            0            0 
     100    266.23735   -660.62836     14809.87    2993.5436     6008.856    14973.004   -4778.0362   -1218.3013   -10400.148 
     200      228.657   -659.72473    13965.171    13707.252    5392.3715    9545.4105    656.42794    3619.4256   -9943.5216 
     300    258.35057   -659.88525    13672.941    10855.568   -478.63123    17365.817    172.77752    1532.7176   -7525.4343 
     400    334.23328   -659.84039    18606.166    7587.9756    8837.8961    23451.753     2525.344    809.59887   -10664.809 
     500    295.65137   -659.93433    16314.082    10836.743    12969.115    16999.461    2212.4439    5449.2707   -8242.6904 
     600    327.25423   -659.84796     17622.28    14236.346    2000.9891    20414.291    2570.6642    8399.7679   -6562.1739 
     700     340.2987   -660.20337    16079.705    16579.156    6823.1559    21466.579    565.07089     3885.823   -9131.6373 
     800    315.35425    -660.2002    8348.0608    2978.5855    6865.6364    22147.123    3901.1716     3941.175   -12789.316 
     900    338.92042   -660.34296   -1643.8443   -1657.4469   -2163.4342     9168.077    270.16595    8689.2964   -8958.2172 
    1000    314.03031   -660.37793    11338.294   -1317.4237   -3514.8623    16197.324   -1852.9868    6164.9102   -3261.1455 
Loop time of 105.892 on 1 procs for 1000 steps with 104 atoms

Performance: 0.082 ns/day, 294.144 hours/ns, 9.444 timesteps/s
99.9% CPU use with 1 MPI tasks x 1 OpenMP threads

MPI task timing breakdown:
Section |  min time  |  avg time  |  max time  |%varavg| %total
---------------------------------------------------------------
Pair    | 105.87     | 105.87     | 105.87     |   0.0 | 99.98
Neigh   | 0          | 0          | 0          |   0.0 |  0.00
Comm    | 0.0046151  | 0.0046151  | 0.0046151  |   0.0 |  0.00
Output  | 0.00041485 | 0.00041485 | 0.00041485 |   0.0 |  0.00
Modify  | 0.01369    | 0.01369    | 0.01369    |   0.0 |  0.01
Other   |            | 0.003421   |            |       |  0.00

Nlocal:        104.000 ave         104 max         104 min
Histogram: 1 0 0 0 0 0 0 0 0 0
Nghost:        1241.00 ave        1241 max        1241 min
Histogram: 1 0 0 0 0 0 0 0 0 0
Neighs:         0.00000 ave           0 max           0 min
Histogram: 1 0 0 0 0 0 0 0 0 0
FullNghs:      8098.00 ave        8098 max        8098 min
Histogram: 1 0 0 0 0 0 0 0 0 0

Total # of neighbors = 8098
Ave neighs/atom = 77.865385
Neighbor list builds = 0
Dangerous builds = 0
include potential.mod
# NOTE: This script can be modified for different pair styles
# See in.elastic for more info.

# we must undefine any fix ave/* fix before using reset_timestep
if "$(is_defined(fix,avp))" then "unfix avp"
unfix avp
reset_timestep 0

newton off

# Choose potential
# pair_style	sw
# pair_coeff * * Si.sw Si
pair_style	nequip
pair_coeff	* * tob14_l3-deployed.pth Ca Si O H

atom_modify sort 0 0.0
#kspace_style	ewald 1.0e-6# Setup neighbor style

neighbor 2.0 bin
neigh_modify once no every 1 delay 0 check yes



# Setup output

fix avp all ave/time  ${nevery} ${nrepeat} ${nfreq} c_thermo_press mode vector
fix avp all ave/time  10 ${nrepeat} ${nfreq} c_thermo_press mode vector
fix avp all ave/time  10 10 ${nfreq} c_thermo_press mode vector
fix avp all ave/time  10 10 100 c_thermo_press mode vector

#min_style cg
#minimize 1.0e-15 1.0e-15 100000 100000 #设置能量最小化

thermo		${nthermo}
thermo		100
thermo_style custom step temp pe press f_avp[1] f_avp[2] f_avp[3] f_avp[4] f_avp[5] f_avp[6]
WARNING: New thermo_style command, previous thermo_modify settings will be lost (src/output.cpp:689)
thermo_modify norm no

# Setup MD

timestep ${timestep}
timestep 0.0001
fix 4 all nve
if "${thermostat} == 1" then    "fix 5 all langevin ${temp} ${temp} ${tdamp} ${seed}"
fix 5 all langevin ${temp} ${temp} ${tdamp} ${seed}
fix 5 all langevin 300 ${temp} ${tdamp} ${seed}
fix 5 all langevin 300 300 ${tdamp} ${seed}
fix 5 all langevin 300 300 0.01 ${seed}
fix 5 all langevin 300 300 0.01 123457


run ${nrun}
run 300
Per MPI rank memory allocation (min/avg/max) = 2.972 | 2.972 | 2.972 Mbytes
Step Temp PotEng Press f_avp[1] f_avp[2] f_avp[3] f_avp[4] f_avp[5] f_avp[6] 
       0    314.03031   -660.37799    11338.244            0            0            0            0            0            0 
     100    273.92918   -660.43689    14982.754    6225.0776    4338.1293    19905.699    1288.6218    1783.7231   -8103.4102 
     200    244.89434   -659.93604    16350.884    14266.858    9713.2933    16390.406   -2182.5437    2797.3469   -12194.866 
     300    264.78318   -659.96246    17735.259    10536.197    6767.9827    26013.559   -4106.2647    3508.4736   -8450.0999 
Loop time of 32.152 on 1 procs for 300 steps with 104 atoms

Performance: 0.081 ns/day, 297.704 hours/ns, 9.331 timesteps/s
99.9% CPU use with 1 MPI tasks x 1 OpenMP threads

MPI task timing breakdown:
Section |  min time  |  avg time  |  max time  |%varavg| %total
---------------------------------------------------------------
Pair    | 32.145     | 32.145     | 32.145     |   0.0 | 99.98
Neigh   | 0          | 0          | 0          |   0.0 |  0.00
Comm    | 0.0014815  | 0.0014815  | 0.0014815  |   0.0 |  0.00
Output  | 0.00016499 | 0.00016499 | 0.00016499 |   0.0 |  0.00
Modify  | 0.0045109  | 0.0045109  | 0.0045109  |   0.0 |  0.01
Other   |            | 0.001161   |            |       |  0.00

Nlocal:        104.000 ave         104 max         104 min
Histogram: 1 0 0 0 0 0 0 0 0 0
Nghost:        1207.00 ave        1207 max        1207 min
Histogram: 1 0 0 0 0 0 0 0 0 0
Neighs:         0.00000 ave           0 max           0 min
Histogram: 1 0 0 0 0 0 0 0 0 0
FullNghs:      8116.00 ave        8116 max        8116 min
Histogram: 1 0 0 0 0 0 0 0 0 0

Total # of neighbors = 8116
Ave neighs/atom = 78.038462
Neighbor list builds = 0
Dangerous builds = 0

# Obtain new stress tensor

variable pxx1 equal f_avp[1]
variable pyy1 equal f_avp[2]
variable pzz1 equal f_avp[3]
variable pxy1 equal f_avp[4]
variable pxz1 equal f_avp[5]
variable pyz1 equal f_avp[6]

# Compute elastic constant from pressure tensor

variable C1pos equal ${d1}
variable C1pos equal -22.4139115548203
variable C2pos equal ${d2}
variable C2pos equal -40.7783968762781
variable C3pos equal ${d3}
variable C3pos equal -85.2724054204617
variable C4pos equal ${d4}
variable C4pos equal 8.81172288861986
variable C5pos equal ${d5}
variable C5pos equal -2.9231853215088
variable C6pos equal ${d6}
variable C6pos equal 36.7013608788504

# Combine positive and negative

variable C1${dir} equal 0.5*(${C1neg}+${C1pos})
variable C16 equal 0.5*(${C1neg}+${C1pos})
variable C16 equal 0.5*(14.9094997047523+${C1pos})
variable C16 equal 0.5*(14.9094997047523+-22.4139115548203)
variable C2${dir} equal 0.5*(${C2neg}+${C2pos})
variable C26 equal 0.5*(${C2neg}+${C2pos})
variable C26 equal 0.5*(8.22500413932056+${C2pos})
variable C26 equal 0.5*(8.22500413932056+-40.7783968762781)
variable C3${dir} equal 0.5*(${C3neg}+${C3pos})
variable C36 equal 0.5*(${C3neg}+${C3pos})
variable C36 equal 0.5*(60.2096399487561+${C3pos})
variable C36 equal 0.5*(60.2096399487561+-85.2724054204617)
variable C4${dir} equal 0.5*(${C4neg}+${C4pos})
variable C46 equal 0.5*(${C4neg}+${C4pos})
variable C46 equal 0.5*(-10.9676474708662+${C4pos})
variable C46 equal 0.5*(-10.9676474708662+8.81172288861986)
variable C5${dir} equal 0.5*(${C5neg}+${C5pos})
variable C56 equal 0.5*(${C5neg}+${C5pos})
variable C56 equal 0.5*(2.47021097191945+${C5pos})
variable C56 equal 0.5*(2.47021097191945+-2.9231853215088)
variable C6${dir} equal 0.5*(${C6neg}+${C6pos})
variable C66 equal 0.5*(${C6neg}+${C6pos})
variable C66 equal 0.5*(38.9252002550773+${C6pos})
variable C66 equal 0.5*(38.9252002550773+36.7013608788504)

# Delete dir to make sure it is not reused

variable dir delete

# Output final values

variable C11all equal ${C11}
variable C11all equal 91.157878525147
variable C22all equal ${C22}
variable C22all equal 95.3495356698673
variable C33all equal ${C33}
variable C33all equal 84.453368318023

variable C12all equal 0.5*(${C12}+${C21})
variable C12all equal 0.5*(40.2727421683547+${C21})
variable C12all equal 0.5*(40.2727421683547+42.2638475246662)
variable C13all equal 0.5*(${C13}+${C31})
variable C13all equal 0.5*(28.2272400487597+${C31})
variable C13all equal 0.5*(28.2272400487597+32.2095317661965)
variable C23all equal 0.5*(${C23}+${C32})
variable C23all equal 0.5*(35.9578089125667+${C32})
variable C23all equal 0.5*(35.9578089125667+39.1924803125502)

variable C44all equal ${C44}
variable C44all equal 29.9162042487811
variable C55all equal ${C55}
variable C55all equal 23.1098871956779
variable C66all equal ${C66}
variable C66all equal 37.8132805669639

variable C14all equal 0.5*(${C14}+${C41})
variable C14all equal 0.5*(-2.47817758032675+${C41})
variable C14all equal 0.5*(-2.47817758032675+-0.993677971935255)
variable C15all equal 0.5*(${C15}+${C51})
variable C15all equal 0.5*(-1.007673000455+${C51})
variable C15all equal 0.5*(-1.007673000455+-0.104063132789345)
variable C16all equal 0.5*(${C16}+${C61})
variable C16all equal 0.5*(-3.752205925034+${C61})
variable C16all equal 0.5*(-3.752205925034+-3.36386754166989)

variable C24all equal 0.5*(${C24}+${C42})
variable C24all equal 0.5*(3.9723902057519+${C42})
variable C24all equal 0.5*(3.9723902057519+3.65698782824242)
variable C25all equal 0.5*(${C25}+${C52})
variable C25all equal 0.5*(0.4788569694872+${C52})
variable C25all equal 0.5*(0.4788569694872+0.480967885981325)
variable C26all equal 0.5*(${C26}+${C62})
variable C26all equal 0.5*(-16.2766963684788+${C62})
variable C26all equal 0.5*(-16.2766963684788+-16.3637431978234)

variable C34all equal 0.5*(${C34}+${C43})
variable C34all equal 0.5*(-0.356566439684755+${C43})
variable C34all equal 0.5*(-0.356566439684755+-0.296230603641974)
variable C35all equal 0.5*(${C35}+${C53})
variable C35all equal 0.5*(-0.48257938021775+${C53})
variable C35all equal 0.5*(-0.48257938021775+0.3834687689518)
variable C36all equal 0.5*(${C36}+${C63})
variable C36all equal 0.5*(-12.5313827358528+${C63})
variable C36all equal 0.5*(-12.5313827358528+-11.0913743554652)

variable C45all equal 0.5*(${C45}+${C54})
variable C45all equal 0.5*(-11.9192614749349+${C54})
variable C45all equal 0.5*(-11.9192614749349+-13.1788687736559)
variable C46all equal 0.5*(${C46}+${C64})
variable C46all equal 0.5*(-1.07796229112317+${C64})
variable C46all equal 0.5*(-1.07796229112317+-1.12478267161597)
variable C56all equal 0.5*(${C56}+${C65})
variable C56all equal 0.5*(-0.226487174794675+${C65})
variable C56all equal 0.5*(-0.226487174794675+0.937948159144224)


print "========================================="
=========================================
print "Components of the Elastic Constant Tensor"
Components of the Elastic Constant Tensor
print "========================================="
=========================================

print "Elastic Constant C11all = ${C11all} ${cunits}"
Elastic Constant C11all = 91.157878525147 GPa
print "Elastic Constant C22all = ${C22all} ${cunits}"
Elastic Constant C22all = 95.3495356698673 GPa
print "Elastic Constant C33all = ${C33all} ${cunits}"
Elastic Constant C33all = 84.453368318023 GPa

print "Elastic Constant C12all = ${C12all} ${cunits}"
Elastic Constant C12all = 41.2682948465105 GPa
print "Elastic Constant C13all = ${C13all} ${cunits}"
Elastic Constant C13all = 30.2183859074781 GPa
print "Elastic Constant C23all = ${C23all} ${cunits}"
Elastic Constant C23all = 37.5751446125584 GPa

print "Elastic Constant C44all = ${C44all} ${cunits}"
Elastic Constant C44all = 29.9162042487811 GPa
print "Elastic Constant C55all = ${C55all} ${cunits}"
Elastic Constant C55all = 23.1098871956779 GPa
print "Elastic Constant C66all = ${C66all} ${cunits}"
Elastic Constant C66all = 37.8132805669639 GPa

print "Elastic Constant C14all = ${C14all} ${cunits}"
Elastic Constant C14all = -1.735927776131 GPa
print "Elastic Constant C15all = ${C15all} ${cunits}"
Elastic Constant C15all = -0.555868066622173 GPa
print "Elastic Constant C16all = ${C16all} ${cunits}"
Elastic Constant C16all = -3.55803673335194 GPa

print "Elastic Constant C24all = ${C24all} ${cunits}"
Elastic Constant C24all = 3.81468901699716 GPa
print "Elastic Constant C25all = ${C25all} ${cunits}"
Elastic Constant C25all = 0.479912427734263 GPa
print "Elastic Constant C26all = ${C26all} ${cunits}"
Elastic Constant C26all = -16.3202197831511 GPa

print "Elastic Constant C34all = ${C34all} ${cunits}"
Elastic Constant C34all = -0.326398521663364 GPa
print "Elastic Constant C35all = ${C35all} ${cunits}"
Elastic Constant C35all = -0.049555305632975 GPa
print "Elastic Constant C36all = ${C36all} ${cunits}"
Elastic Constant C36all = -11.811378545659 GPa

print "Elastic Constant C45all = ${C45all} ${cunits}"
Elastic Constant C45all = -12.5490651242954 GPa
print "Elastic Constant C46all = ${C46all} ${cunits}"
Elastic Constant C46all = -1.10137248136957 GPa
print "Elastic Constant C56all = ${C56all} ${cunits}"
Elastic Constant C56all = 0.355730492174774 GPa

print " "
 
print "Cij tensor matrix"
Cij tensor matrix
print " "
 
print "${C11all}  ${C12all}  ${C13all}  ${C14all}  ${C15all}  ${C16all}"
91.157878525147  41.2682948465105  30.2183859074781  -1.735927776131  -0.555868066622173  -3.55803673335194
print "${C12all}  ${C22all}  ${C23all}  ${C24all}  ${C25all}  ${C26all}"
41.2682948465105  95.3495356698673  37.5751446125584  3.81468901699716  0.479912427734263  -16.3202197831511
print "${C13all}  ${C23all}  ${C33all}  ${C34all}  ${C35all}  ${C36all}"
30.2183859074781  37.5751446125584  84.453368318023  -0.326398521663364  -0.049555305632975  -11.811378545659
print "${C14all}  ${C24all}  ${C34all}  ${C44all}  ${C45all}  ${C46all}"
-1.735927776131  3.81468901699716  -0.326398521663364  29.9162042487811  -12.5490651242954  -1.10137248136957
print "${C15all}  ${C25all}  ${C35all}  ${C45all}  ${C55all}  ${C56all}"
-0.555868066622173  0.479912427734263  -0.049555305632975  -12.5490651242954  23.1098871956779  0.355730492174774
print "${C16all}  ${C26all}  ${C36all}  ${C46all}  ${C56all}  ${C66all}"
-3.55803673335194  -16.3202197831511  -11.811378545659  -1.10137248136957  0.355730492174774  37.8132805669639

print "${C11all}  ${C12all}  ${C13all}  ${C14all}  ${C15all}  ${C16all}" file Cij.dat screen no
print "${C12all}  ${C22all}  ${C23all}  ${C24all}  ${C25all}  ${C26all}" append Cij.dat screen no
print "${C13all}  ${C23all}  ${C33all}  ${C34all}  ${C35all}  ${C36all}" append Cij.dat screen no
print "${C14all}  ${C24all}  ${C34all}  ${C44all}  ${C45all}  ${C46all}" append Cij.dat screen no
print "${C15all}  ${C25all}  ${C35all}  ${C45all}  ${C55all}  ${C56all}" append Cij.dat screen no
print "${C16all}  ${C26all}  ${C36all}  ${C46all}  ${C56all}  ${C66all}" append Cij.dat screen no

write_restart restart2
System init for write_restart ...
Total wall time: 0:48:22
