88
Lattice="6.8037 0.0 0.0 -4.139012893 6.184814974 0.0 0.294028686 -0.269817895 22.405446357" Properties=species:S:1:pos:R:3:forces:R:3 energy=-570.90355005 pbc="T T T"
Si      -4.98545825       4.44834264       9.85321517       0.00122984       0.00138871      -0.00059762
Si      -4.97674595       4.41427329      13.05966136      -0.00124706       0.00078937      -0.00114080
Si      -3.45451250       5.83875116       3.79020375       0.00052351      -0.00105362      -0.00049438
Si      -3.36902590       5.83946368      19.18259777       0.00024794       0.00038609      -0.00042193
Si      -1.54046299       4.51429972       1.86267108      -0.00078302      -0.00005270      -0.00074495
Si      -1.43567848       4.47912506      21.06684889       0.00038535      -0.00049336      -0.00087131
Si      -1.00177025       2.21244854       3.71223747       0.00072562      -0.00098839      -0.00032362
Si      -0.94442439       2.20394755      19.11613595      -0.00123770       0.00010878      -0.00031463
Si      -0.06738007       5.80925470       7.92288513       0.00045200      -0.00028232       0.00051776
Si      -0.05373913       5.78755094      14.98355803      -0.00020355      -0.00109341      -0.00106591
Si       2.34640177       2.19246244       7.88338073       0.00030794      -0.00027405      -0.00005332
Si       2.35564572       2.17161817      15.02686562       0.00025723      -0.00036980      -0.00092883
O       -5.61376115       6.26658399       7.01006697       0.00004154      -0.00043720       0.00094509
O       -5.16150064       5.04346232       0.74679161       0.00029334      -0.00015516       0.00085455
O       -5.01437890       4.38870724      11.45808426       0.00154745      -0.00059177       0.00159765
O       -4.41733604       4.85824923       4.64152286      -0.00059940      -0.00040723      -0.00093680
O       -4.31836967       4.85402849      18.32142550      -0.00104543       0.00149534      -0.00011467
O       -3.50242578       3.12618541      15.93070048       0.00031429      -0.00071105      -0.00160446
O       -3.53606652       3.14553274       6.94918085       0.00065270      -0.00034591      -0.00055254
O       -3.65947286       5.35197084       9.39808018      -0.00029810      -0.00028776      -0.00149165
O       -3.62629577       5.23318624      13.56532230       0.00246440       0.00159359      -0.00102203
O       -3.61083599       1.08675439      11.66099329       0.00350935       0.00000425      -0.00238059
O       -2.97746458       5.07143224       2.38632603      -0.00011003       0.00086882      -0.00201681
O       -2.86112394       5.17401714      20.65452606       0.00083160       0.00029130       0.00033701
O       -2.28381327       1.72919270       4.56965616      -0.00133954       0.00170853      -0.00026688
O       -2.21799156       1.69964100      18.26263583      -0.00169861       0.00226408       0.00126365
O       -2.32713389       1.27107680       0.00785610       0.00042789       0.00101916      -0.00001990
O       -1.59492124       4.70030252       0.26019333       0.00188726      -0.00159693       0.00036861
O       -1.86411775       4.78852552      11.22384049       0.00026880       0.00280684      -0.00003718
O       -1.35678398       2.51284984       9.33511099      -0.00057009       0.00189660       0.00018773
O       -1.45116000       0.04762866      15.88360795      -0.00082858      -0.00067271      -0.00051500
O       -1.40634370       2.95234705       2.27073174       0.00026500      -0.00022078       0.00055498
O       -1.42880667       2.94487916      20.53970478      -0.00018757       0.00009568       0.00088427
O       -1.04083151       4.84043243       7.07026774       0.00033184       0.00017625      -0.00104704
O       -1.10902721       2.49096062      13.55125596       0.00240083      -0.00202710      -0.00035929
O       -1.02245205       4.81194821      15.83361696       0.00025909      -0.00126736      -0.00115418
O       -0.05996884       3.15611551       4.64315757       0.00099222      -0.00145066       0.00079489
O       -0.01353624       3.16979522      18.21449053       0.00007523      -0.00170819       0.00053671
O       -0.27143851       5.35657156       2.47266542      -0.00006177      -0.00085418       0.00064183
O       -0.15086981       0.91456764       3.15042985       0.00052978       0.00018418       0.00264617
O       -0.16312882       5.34060973      20.46765603       0.00014864      -0.00113933      -0.00061187
O       -0.09798682       0.93467150      19.74059075      -0.00064085      -0.00010546       0.00048775
O        0.43814466       5.12129250       9.34507321      -0.00131075      -0.00114681       0.00003192
O        0.26937563       1.36797388      11.27293854       0.00656610       0.00206081       0.00502409
O        0.43133487       5.08027392      13.55898371       0.00009201       0.00150447      -0.00273574
O        1.05465640       1.66183231       7.08291318       0.00099425      -0.00065235       0.00138428
O        0.66783761       1.44845138       0.14376342      -0.00178730      -0.00096685       0.00161764
O        1.09358966       1.63619172      15.87223508       0.00107618      -0.00185537      -0.00073657
O        1.95016540       0.12099220       4.67732106       0.00128751      -0.00310386      -0.00001242
O        1.92602262       2.94005336       9.29883272       0.00041949      -0.00051493       0.00047602
O        1.89059588       2.89467406      13.60751572      -0.00159530       0.00108666      -0.00032118
O        2.04023679       0.10988788      18.29479171      -0.00079002      -0.00015407       0.00038358
O        2.40052995       2.34086421       2.11816051      -0.00002728       0.00255977      -0.00275657
O        2.23642424       2.71369038      20.59163166       0.00058768       0.00100097       0.00080724
O        3.27628391       0.95779523       8.49541627       0.00076271      -0.00022391       0.00029034
O        3.23822629       0.90187097      14.40789587       0.00047441      -0.00017967      -0.00171501
H       -4.31024364       5.28741709       1.19066707      -0.00222229       0.00029667      -0.00176996
H       -4.45756580       3.60396257      20.97530478      -0.00325170       0.00011197       0.00134730
H       -4.48781561       3.29059818       1.90428967      -0.00102749      -0.00403032       0.00131134
H       -2.87528759       5.10468016      10.00158909       0.00066170      -0.00055303       0.00010268
H       -2.86852355       5.04823762      12.96570973      -0.00248737       0.00189297       0.00462043
H       -2.14758324       1.92413062       9.36635739       0.00168524       0.00127187      -0.00075491
H       -2.88920474       1.58951278       0.75386545       0.00142440       0.00010594       0.00077528
H       -1.93521033       1.78087397      21.80926597      -0.00059568       0.00070652      -0.00011582
H       -1.39365913      -0.28919015       0.39787130      -0.00022865       0.00062210      -0.00203359
H       -0.63006524       1.98767401      12.85009431       0.00036651       0.00132945       0.00197182
H       -1.28245988       4.13546900      10.77584536      -0.00073652       0.00143086       0.00044534
H       -0.73109493       2.13310631      10.00744559      -0.00054043       0.00225241       0.00027222
H       -0.92479636       3.43056818      13.35370503       0.00092118      -0.00021739      -0.00000977
H        0.01044807       1.38175383      22.68778236       0.00115716      -0.00012366      -0.00048768
H        0.13495027       6.06689484      21.07405670      -0.00082118       0.00002727      -0.00000067
H        0.55738668       5.18070924       1.91273192      -0.00038382      -0.00007078       0.00029426
H        1.22327097       1.48450106      11.49265521      -0.00398484      -0.00275947      -0.00572839
H        0.30086063       0.60973530      10.64517169       0.00044845       0.00004724       0.00317989
H        0.96088618       0.38063527      21.97164781       0.00092139       0.00047530      -0.00034603
H        1.80099624       2.18640990      21.30363085      -0.00224405       0.00042840      -0.00048656
H        1.72887105       1.91123798       1.52928200      -0.00054522       0.00042606       0.00060301
H        2.81504038      -0.56181813      11.33349718       0.00070178       0.00058545       0.00035002
H        3.61027864       1.90738188      11.33970977       0.00116093      -0.00529163       0.00570301
H        3.31168955       1.08819529      12.64608903      -0.00175302       0.00426737      -0.00101716
Ca      -3.34393557       5.50994580       6.83174293      -0.00125194      -0.00037282       0.00104773
Ca      -3.30632044       5.48757519      16.11381333      -0.00044691      -0.00088482       0.00053821
Ca      -1.14780960       2.48337055       6.79212324       0.00149533       0.00003849      -0.00065407
Ca      -1.13345461       2.43985533      16.06298789      -0.00052314      -0.00161834      -0.00105002
Ca       0.07505139       5.54128545       4.89768656      -0.00048615       0.00071969      -0.00057915
Ca       0.13996899       5.51757284      18.00498749      -0.00163784       0.00027188       0.00006798
Ca       2.28733595       2.48772216       4.76509182      -0.00093313      -0.00037703      -0.00017963
Ca       2.32728525       2.49125584      18.12882780      -0.00211178       0.00108537      -0.00068516
