ITEM: TIMESTEP
0
ITEM: NUMBER OF ATOMS
21
ITEM: BOX BOUNDS ss ss ss
8.6851685000000012e-01 8.8047939099999990e+00
2.7225679600000001e+00 7.4856579999999999e+00
1.8748502000000000e+00 8.0969742099999991e+00
ITEM: ATOMS id type xs ys zs
9 3 0.220258 0.565853 0.267158
12 1 0.253078 0.677962 0.438346
1 1 0.789535 0.271477 0.470889
2 1 0.616678 0.679569 0.232271
3 1 0.855795 0.392499 0.292158
4 1 0.761289 0.560854 0.157202
7 1 0.550627 0.577553 0.437267
16 2 0.56225 0.867744 0.125341
17 2 0.999874 0.374487 0.268228
18 2 0.801714 0.595122 0.000160717
5 1 0.138767 0.792099 0.617926
10 3 0.460579 0.367061 0.878222
13 3 0.419191 0.748186 0.520025
14 2 0.458361 0.228977 0.999839
19 2 0.179247 0.99979 0.651237
20 2 0.000126004 0.789319 0.571576
21 2 0.158429 0.688763 0.7754
6 1 0.627613 0.362488 0.547968
8 3 0.63372 0.000209948 0.780314
11 1 0.5701 0.228254 0.749444
15 2 0.842488 0.0997115 0.565286
ITEM: TIMESTEP
10
ITEM: NUMBER OF ATOMS
21
ITEM: BOX BOUNDS ss ss ss
9.2364738955884662e-01 8.7082480969385170e+00
2.7158851962499213e+00 7.5819806272046781e+00
1.7778311534278630e+00 8.1017413066238220e+00
ITEM: ATOMS id type xs ys zs
9 3 0.218056 0.556195 0.280073
12 1 0.250975 0.665944 0.447726
1 1 0.795947 0.266948 0.480422
2 1 0.619612 0.667124 0.244657
3 1 0.868547 0.383989 0.302383
4 1 0.769508 0.550837 0.169859
7 1 0.55389 0.573202 0.442639
16 2 0.563827 0.821821 0.159595
17 2 0.999872 0.354695 0.270342
18 2 0.819179 0.5997 0.00015813
5 1 0.133452 0.775601 0.621971
10 3 0.462903 0.359126 0.879712
13 3 0.419741 0.730506 0.525957
14 2 0.454219 0.235375 0.999842
19 2 0.177042 0.999794 0.655289
20 2 0.000128459 0.773035 0.579266
21 2 0.155698 0.665268 0.773323
6 1 0.633179 0.35726 0.554101
8 3 0.638389 0.000205504 0.785222
11 1 0.574895 0.22529 0.750492
15 2 0.859823 0.102892 0.572285
ITEM: TIMESTEP
20
ITEM: NUMBER OF ATOMS
21
ITEM: BOX BOUNDS ss ss ss
8.6885187086403559e-01 8.7633819453236690e+00
2.7038836218436626e+00 7.5139958014913555e+00
1.9081508764688577e+00 8.1460748611315505e+00
ITEM: ATOMS id type xs ys zs
9 3 0.223383 0.567365 0.267652
12 1 0.254612 0.679089 0.435987
1 1 0.789283 0.272671 0.4691
2 1 0.61605 0.672518 0.230917
3 1 0.866295 0.387833 0.284449
4 1 0.76869 0.562314 0.147707
7 1 0.552957 0.594987 0.422844
16 2 0.53288 0.844275 0.142412
17 2 0.999873 0.318793 0.226334
18 2 0.818067 0.631764 0.00016031
5 1 0.139092 0.789129 0.607551
10 3 0.464456 0.363333 0.870325
13 3 0.41912 0.733492 0.509869
14 2 0.444156 0.247744 0.99984
19 2 0.173639 0.999792 0.637213
20 2 0.00012667 0.779757 0.560502
21 2 0.163316 0.658676 0.750847
6 1 0.631664 0.369129 0.539082
8 3 0.634584 0.000207895 0.780528
11 1 0.57555 0.229156 0.736459
15 2 0.865065 0.122787 0.559897
ITEM: TIMESTEP
30
ITEM: NUMBER OF ATOMS
21
ITEM: BOX BOUNDS ss ss ss
9.2650288034835870e-01 8.6049511370786771e+00
2.6940272396244342e+00 7.5859211777261262e+00
1.8873917419044850e+00 8.1019664619054925e+00
ITEM: ATOMS id type xs ys zs
9 3 0.223645 0.561819 0.276992
12 1 0.254711 0.673783 0.444208
1 1 0.804466 0.273155 0.473882
2 1 0.623752 0.663981 0.230979
3 1 0.885686 0.378241 0.28407
4 1 0.786218 0.557678 0.152976
7 1 0.561493 0.593312 0.42838
16 2 0.539341 0.800976 0.157115
17 2 0.99987 0.283726 0.220898
18 2 0.843979 0.657509 0.000160912
5 1 0.133818 0.777248 0.609645
10 3 0.471219 0.357588 0.87495
13 3 0.420528 0.714626 0.513305
14 2 0.445851 0.245102 0.999839
19 2 0.167875 0.999796 0.650901
20 2 0.000130235 0.75984 0.560869
21 2 0.1613 0.642924 0.749233
6 1 0.641923 0.373984 0.542357
8 3 0.64216 0.00020442 0.793307
11 1 0.585453 0.222991 0.742413
15 2 0.881952 0.132058 0.574041
ITEM: TIMESTEP
40
ITEM: NUMBER OF ATOMS
21
ITEM: BOX BOUNDS ss ss ss
8.8137031966525603e-01 8.5998493555135358e+00
2.6809042912927525e+00 7.5147970428121971e+00
1.9773428216158382e+00 8.0435049004298591e+00
ITEM: ATOMS id type xs ys zs
9 3 0.22885 0.571711 0.271994
12 1 0.259777 0.688471 0.441887
1 1 0.809223 0.285896 0.466561
2 1 0.628402 0.67438 0.214921
3 1 0.884439 0.379772 0.270654
4 1 0.791373 0.574182 0.144203
7 1 0.565767 0.600905 0.427701
16 2 0.53788 0.822664 0.113843
17 2 0.99987 0.259649 0.202653
18 2 0.844909 0.66861 0.000164849
5 1 0.137412 0.791076 0.608276
10 3 0.475563 0.364798 0.877589
13 3 0.421526 0.719813 0.512402
14 2 0.452556 0.233883 0.999835
19 2 0.165478 0.999793 0.661598
20 2 0.000129559 0.760988 0.547165
21 2 0.161908 0.659896 0.755535
6 1 0.646193 0.388165 0.541859
8 3 0.642065 0.000206873 0.804367
11 1 0.588072 0.22575 0.748193
15 2 0.869944 0.13576 0.579961
ITEM: TIMESTEP
50
ITEM: NUMBER OF ATOMS
21
ITEM: BOX BOUNDS ss ss ss
9.1630810919095218e-01 8.5673080543944859e+00
2.6662642323754508e+00 7.5564523688089142e+00
1.8965391705432013e+00 7.9706554725461034e+00
ITEM: ATOMS id type xs ys zs
9 3 0.225401 0.566968 0.285056
12 1 0.257346 0.685517 0.453946
1 1 0.81413 0.292878 0.475469
2 1 0.630998 0.671689 0.222209
3 1 0.884448 0.370155 0.27747
4 1 0.795555 0.578915 0.160916
7 1 0.56707 0.5926 0.43935
16 2 0.562067 0.804143 0.110269
17 2 0.999869 0.268225 0.216949
18 2 0.853939 0.655799 0.000164633
5 1 0.129803 0.78525 0.620987
10 3 0.475117 0.364359 0.885957
13 3 0.420491 0.711727 0.53052
14 2 0.45494 0.224139 0.999835
19 2 0.154529 0.999796 0.683433
20 2 0.000130702 0.755877 0.555798
21 2 0.148096 0.662639 0.772973
6 1 0.652593 0.387259 0.559961
8 3 0.640939 0.000204491 0.822054
11 1 0.58867 0.227687 0.762293
15 2 0.861706 0.127534 0.582518
ITEM: TIMESTEP
60
ITEM: NUMBER OF ATOMS
21
ITEM: BOX BOUNDS ss ss ss
8.4148208806835156e-01 8.6456257818140170e+00
2.6643158961725750e+00 7.5638968940636291e+00
1.8911219108608059e+00 7.9613891328015711e+00
ITEM: ATOMS id type xs ys zs
9 3 0.228759 0.564665 0.284249
12 1 0.260882 0.684197 0.454072
1 1 0.808275 0.294548 0.476311
2 1 0.630098 0.671611 0.224354
3 1 0.872972 0.365206 0.272343
4 1 0.792429 0.583913 0.161596
7 1 0.565403 0.588108 0.434975
16 2 0.572568 0.814381 0.0965098
17 2 0.999872 0.284794 0.212608
18 2 0.844915 0.638483 0.000164737
5 1 0.132622 0.786052 0.624653
10 3 0.47382 0.365152 0.884628
13 3 0.424311 0.709722 0.53927
14 2 0.449891 0.228225 0.999835
19 2 0.151918 0.999796 0.676997
20 2 0.000128137 0.763098 0.552044
21 2 0.142676 0.659506 0.775853
6 1 0.65562 0.385684 0.567261
8 3 0.635693 0.000204099 0.826828
11 1 0.589289 0.229419 0.764027
15 2 0.859949 0.111579 0.560787
ITEM: TIMESTEP
70
ITEM: NUMBER OF ATOMS
21
ITEM: BOX BOUNDS ss ss ss
8.3470246375200874e-01 8.6315201850561500e+00
2.6765546926715129e+00 7.5951799164398315e+00
1.8446801922358280e+00 7.9827455281078521e+00
ITEM: ATOMS id type xs ys zs
9 3 0.228129 0.559583 0.287041
12 1 0.260533 0.676284 0.457074
1 1 0.811455 0.283333 0.479211
2 1 0.633335 0.669218 0.233158
3 1 0.873106 0.36277 0.271342
4 1 0.797122 0.578103 0.164861
7 1 0.566695 0.579612 0.434338
16 2 0.569423 0.818197 0.123318
17 2 0.999872 0.294941 0.215368
18 2 0.844283 0.634104 0.000162918
5 1 0.128298 0.781917 0.626023
10 3 0.472448 0.363054 0.880219
13 3 0.428664 0.703408 0.546628
14 2 0.439752 0.239378 0.999837
19 2 0.149281 0.999797 0.664823
20 2 0.000128257 0.768539 0.555604
21 2 0.134409 0.650443 0.772266
6 1 0.661172 0.383521 0.570723
8 3 0.635194 0.000203309 0.826146
11 1 0.59464 0.226256 0.764734
15 2 0.876601 0.102967 0.543636
ITEM: TIMESTEP
80
ITEM: NUMBER OF ATOMS
21
ITEM: BOX BOUNDS ss ss ss
7.8248400082785496e-01 8.6157527647962304e+00
2.6863777992017845e+00 7.6045225163273527e+00
1.8290020141727967e+00 7.9720122911383688e+00
ITEM: ATOMS id type xs ys zs
9 3 0.232847 0.559285 0.289598
12 1 0.264352 0.669727 0.461648
1 1 0.817537 0.269224 0.478055
2 1 0.639401 0.670747 0.240352
3 1 0.876476 0.365059 0.272703
4 1 0.799525 0.572941 0.161617
7 1 0.571848 0.574169 0.439443
16 2 0.557907 0.829035 0.165405
17 2 0.999872 0.286995 0.212171
18 2 0.847013 0.647562 0.000162787
5 1 0.130551 0.780918 0.625747
10 3 0.473967 0.364182 0.879543
13 3 0.434927 0.699407 0.550356
14 2 0.436296 0.250398 0.999837
19 2 0.159241 0.999797 0.664557
20 2 0.000127661 0.7699 0.552225
21 2 0.136227 0.653313 0.774504
6 1 0.666987 0.383397 0.570681
8 3 0.638424 0.000203329 0.827363
11 1 0.600149 0.227307 0.770395
15 2 0.892173 0.101181 0.551738
ITEM: TIMESTEP
90
ITEM: NUMBER OF ATOMS
21
ITEM: BOX BOUNDS ss ss ss
7.8923825871448916e-01 8.6032847287427714e+00
2.6911674666650591e+00 7.5432118474417562e+00
1.8858914237358004e+00 7.9553590060362360e+00
ITEM: ATOMS id type xs ys zs
9 3 0.232497 0.56893 0.285697
12 1 0.262982 0.672685 0.461724
1 1 0.821467 0.261789 0.468174
2 1 0.641646 0.682123 0.241274
3 1 0.881438 0.370815 0.269523
4 1 0.794866 0.579103 0.14671
7 1 0.575471 0.578608 0.443408
16 2 0.553743 0.854166 0.179528
17 2 0.999872 0.275623 0.197543
18 2 0.850078 0.672224 0.000164759
5 1 0.128052 0.79136 0.619042
10 3 0.471696 0.373037 0.877548
13 3 0.434397 0.704836 0.545368
14 2 0.433123 0.251705 0.999835
19 2 0.164803 0.999794 0.667038
20 2 0.000127975 0.77803 0.543292
21 2 0.133455 0.674551 0.776202
6 1 0.67006 0.383302 0.564701
8 3 0.640285 0.000206099 0.826716
11 1 0.599399 0.236443 0.773846
15 2 0.894466 0.112106 0.56707
ITEM: TIMESTEP
100
ITEM: NUMBER OF ATOMS
21
ITEM: BOX BOUNDS ss ss ss
8.0497577564279699e-01 8.5645946450737860e+00
2.7111445358524509e+00 7.5747756632038259e+00
1.8700211884549935e+00 7.8911491064799968e+00
ITEM: ATOMS id type xs ys zs
9 3 0.232367 0.566123 0.292803
12 1 0.263089 0.662765 0.472186
1 1 0.82573 0.253047 0.469716
2 1 0.643735 0.680157 0.254007
3 1 0.890389 0.36598 0.274704
4 1 0.790568 0.572783 0.148666
7 1 0.581474 0.573091 0.458558
16 2 0.573217 0.849897 0.186904
17 2 0.999871 0.267647 0.196513
18 2 0.855319 0.678579 0.000166082
5 1 0.1279 0.784 0.621918
10 3 0.470637 0.373388 0.884561
13 3 0.432979 0.69534 0.548615
14 2 0.436122 0.244646 0.999834
19 2 0.167648 0.999794 0.675405
20 2 0.000128872 0.773661 0.541676
21 2 0.127491 0.676448 0.784069
6 1 0.674664 0.366885 0.570443
8 3 0.644274 0.000205608 0.834464
11 1 0.600222 0.236063 0.782898
15 2 0.894383 0.112873 0.58385
ITEM: TIMESTEP
110
ITEM: NUMBER OF ATOMS
21
ITEM: BOX BOUNDS ss ss ss
8.3870192185087322e-01 8.6421604520092998e+00
2.7469922805365234e+00 7.5465146888840291e+00
1.9309197485471665e+00 7.8723116710929064e+00
ITEM: ATOMS id type xs ys zs
9 3 0.226852 0.56713 0.287487
12 1 0.259384 0.66112 0.470226
1 1 0.816102 0.249793 0.464704
2 1 0.636047 0.683387 0.25524
3 1 0.882098 0.364979 0.263563
4 1 0.777622 0.570109 0.144982
7 1 0.576705 0.575593 0.461187
16 2 0.572302 0.875464 0.166052
17 2 0.999872 0.267146 0.180905
18 2 0.829548 0.668628 0.000168311
5 1 0.126074 0.787317 0.618282
10 3 0.46226 0.375773 0.883716
13 3 0.424012 0.693291 0.543563
14 2 0.427764 0.235858 0.999832
19 2 0.157958 0.999792 0.658734
20 2 0.000128148 0.782421 0.529451
21 2 0.114962 0.673929 0.781166
6 1 0.665706 0.352185 0.568833
8 3 0.637458 0.000208354 0.834817
11 1 0.592841 0.231085 0.778347
15 2 0.884114 0.0961638 0.569462
ITEM: TIMESTEP
120
ITEM: NUMBER OF ATOMS
21
ITEM: BOX BOUNDS ss ss ss
9.1663468106244983e-01 8.6215229271922578e+00
2.7722281043653290e+00 7.6322654906585790e+00
1.8295052087229453e+00 7.8455576583060820e+00
ITEM: ATOMS id type xs ys zs
9 3 0.219529 0.553305 0.299877
12 1 0.25536 0.645761 0.479424
1 1 0.816649 0.244404 0.476089
2 1 0.63366 0.673926 0.273901
3 1 0.880795 0.355401 0.270468
4 1 0.777206 0.552012 0.171213
7 1 0.57409 0.566444 0.475752
16 2 0.577804 0.838892 0.192276
17 2 0.99987 0.284898 0.201103
18 2 0.81538 0.64873 0.000166222
5 1 0.120224 0.771616 0.627802
10 3 0.458171 0.367944 0.887197
13 3 0.419346 0.676112 0.555223
14 2 0.42097 0.23835 0.999834
19 2 0.151115 0.999794 0.658571
20 2 0.000129788 0.770425 0.531553
21 2 0.100682 0.656627 0.783494
6 1 0.660298 0.337836 0.578293
8 3 0.636899 0.00020576 0.843217
11 1 0.589823 0.22204 0.778359
15 2 0.887874 0.0699363 0.55302
ITEM: TIMESTEP
130
ITEM: NUMBER OF ATOMS
21
ITEM: BOX BOUNDS ss ss ss
9.2704873613602923e-01 8.6831588430871101e+00
2.7777072133399092e+00 7.5596513824744287e+00
1.9136093711262561e+00 7.8751215008824582e+00
ITEM: ATOMS id type xs ys zs
9 3 0.216885 0.55712 0.285588
12 1 0.254288 0.654879 0.465699
1 1 0.810743 0.249781 0.465419
2 1 0.629526 0.683333 0.267955
3 1 0.868042 0.356827 0.258331
4 1 0.7721 0.561185 0.164894
7 1 0.566625 0.57752 0.466022
16 2 0.554799 0.870025 0.17868
17 2 0.999871 0.299814 0.183545
18 2 0.791378 0.625893 0.000167743
5 1 0.120957 0.785687 0.620027
10 3 0.455611 0.373211 0.877225
13 3 0.417482 0.68365 0.551556
14 2 0.415517 0.247715 0.999832
19 2 0.151753 0.999791 0.651335
20 2 0.000128931 0.779028 0.513562
21 2 0.0989453 0.668435 0.779034
6 1 0.651235 0.346299 0.564135
8 3 0.633356 0.00020912 0.841137
11 1 0.5814 0.223185 0.767135
15 2 0.877825 0.0610227 0.522677
ITEM: TIMESTEP
140
ITEM: NUMBER OF ATOMS
21
ITEM: BOX BOUNDS ss ss ss
9.6140343809033335e-01 8.5548668815471007e+00
2.7790471421144884e+00 7.6105497846571968e+00
1.7788490078174177e+00 7.8785797692524788e+00
ITEM: ATOMS id type xs ys zs
9 3 0.218331 0.545771 0.29784
12 1 0.255963 0.649269 0.473331
1 1 0.822277 0.247727 0.475524
2 1 0.638047 0.680781 0.285062
3 1 0.879774 0.345671 0.278689
4 1 0.782715 0.563143 0.185715
7 1 0.571124 0.572498 0.475897
16 2 0.561461 0.82981 0.215404
17 2 0.999868 0.293954 0.202838
18 2 0.806868 0.613149 0.000163942
5 1 0.120627 0.777407 0.626129
10 3 0.463002 0.367917 0.87523
13 3 0.423877 0.675634 0.568344
14 2 0.427256 0.255427 0.999836
19 2 0.160777 0.999793 0.672974
20 2 0.000131692 0.770876 0.533612
21 2 0.104491 0.668054 0.783152
6 1 0.65973 0.34907 0.566545
8 3 0.644292 0.000206975 0.848897
11 1 0.585978 0.215595 0.771847
15 2 0.885076 0.0577545 0.539523
ITEM: TIMESTEP
150
ITEM: NUMBER OF ATOMS
21
ITEM: BOX BOUNDS ss ss ss
8.6734174357741434e-01 8.5540703408000827e+00
2.7800168799919303e+00 7.5226270861207505e+00
1.8988868421217899e+00 7.9236695870616058e+00
ITEM: ATOMS id type xs ys zs
9 3 0.231109 0.550699 0.279761
12 1 0.264894 0.663353 0.456142
1 1 0.819933 0.24855 0.463162
2 1 0.641918 0.697894 0.267811
3 1 0.878741 0.350754 0.265301
4 1 0.78491 0.582229 0.162986
7 1 0.57469 0.582081 0.459902
16 2 0.550961 0.86973 0.181158
17 2 0.99987 0.261917 0.174778
18 2 0.818774 0.631884 0.000165981
5 1 0.134583 0.794443 0.61198
10 3 0.470941 0.372787 0.862529
13 3 0.430324 0.689113 0.562013
14 2 0.443516 0.265652 0.999834
19 2 0.174771 0.999789 0.664967
20 2 0.000130094 0.79569 0.529577
21 2 0.128514 0.674866 0.772266
6 1 0.664079 0.35724 0.551778
8 3 0.650047 0.000210854 0.844005
11 1 0.59145 0.213098 0.761266
15 2 0.876234 0.0689445 0.55387
ITEM: TIMESTEP
160
ITEM: NUMBER OF ATOMS
21
ITEM: BOX BOUNDS ss ss ss
9.0674210850097670e-01 8.3784350042080593e+00
2.7729074194058732e+00 7.5832455334758100e+00
1.8404854631837044e+00 7.9480252371077391e+00
ITEM: ATOMS id type xs ys zs
9 3 0.237702 0.540552 0.285858
12 1 0.266582 0.657567 0.457288
1 1 0.831757 0.240447 0.470328
2 1 0.650513 0.699762 0.267457
3 1 0.897569 0.351224 0.268698
4 1 0.803724 0.577456 0.167746
7 1 0.585056 0.574612 0.461611
16 2 0.578739 0.849923 0.187454
17 2 0.999866 0.235894 0.190545
18 2 0.856919 0.663926 0.000163732
5 1 0.13441 0.785133 0.610929
10 3 0.479358 0.365726 0.858824
13 3 0.434466 0.682716 0.566946
14 2 0.461115 0.272915 0.999836
19 2 0.182486 0.999792 0.666226
20 2 0.000133838 0.800927 0.554089
21 2 0.140828 0.654614 0.75911
6 1 0.676485 0.34986 0.558644
8 3 0.66491 0.000207886 0.846288
11 1 0.606934 0.209156 0.758605
15 2 0.890405 0.0811664 0.579484
ITEM: TIMESTEP
170
ITEM: NUMBER OF ATOMS
21
ITEM: BOX BOUNDS ss ss ss
8.3120566758996695e-01 8.3729817846221604e+00
2.7617616073101638e+00 7.5342993952604527e+00
2.0072273011297650e+00 7.9740735710056718e+00
ITEM: ATOMS id type xs ys zs
9 3 0.251836 0.543913 0.265749
12 1 0.273835 0.667589 0.439229
1 1 0.828974 0.240996 0.45459
2 1 0.652529 0.709872 0.240695
3 1 0.894715 0.360615 0.246704
4 1 0.809325 0.585676 0.140624
7 1 0.588431 0.583704 0.442162
16 2 0.583391 0.901181 0.146505
17 2 0.999867 0.223351 0.160471
18 2 0.864126 0.690661 0.000167593
5 1 0.145664 0.796939 0.597666
10 3 0.484626 0.366345 0.851021
13 3 0.437067 0.692161 0.550527
14 2 0.473202 0.279946 0.999832
19 2 0.194607 0.99979 0.647378
20 2 0.000132595 0.817661 0.543626
21 2 0.158348 0.650045 0.742785
6 1 0.67635 0.350678 0.550313
8 3 0.670598 0.000209532 0.841452
11 1 0.615206 0.213905 0.74985
15 2 0.896284 0.0849782 0.562125
ITEM: TIMESTEP
180
ITEM: NUMBER OF ATOMS
21
ITEM: BOX BOUNDS ss ss ss
9.2254665113905221e-01 8.3471118501023742e+00
2.7551853348398945e+00 7.5732475042241294e+00
2.0035750525652132e+00 7.9898741567883551e+00
ITEM: ATOMS id type xs ys zs
9 3 0.249954 0.537136 0.266108
12 1 0.266447 0.664936 0.438215
1 1 0.826751 0.240924 0.450152
2 1 0.650129 0.703827 0.235399
3 1 0.891672 0.35547 0.248348
4 1 0.809852 0.584094 0.143009
7 1 0.583176 0.583488 0.438785
16 2 0.593957 0.883202 0.165608
17 2 0.999865 0.254434 0.16379
18 2 0.878563 0.703456 0.000167048
5 1 0.135348 0.792826 0.597402
10 3 0.479432 0.358891 0.850617
13 3 0.429797 0.688825 0.543405
14 2 0.469177 0.272735 0.999833
19 2 0.193392 0.999792 0.650782
20 2 0.000134688 0.804819 0.54178
21 2 0.147213 0.651363 0.741712
6 1 0.670539 0.348994 0.549795
8 3 0.671329 0.000207552 0.840728
11 1 0.614147 0.213088 0.756567
15 2 0.905363 0.07498 0.531811
ITEM: TIMESTEP
190
ITEM: NUMBER OF ATOMS
21
ITEM: BOX BOUNDS ss ss ss
8.7178845678932670e-01 8.4766657515687793e+00
2.7497575632609310e+00 7.5518759606113122e+00
2.0554164334724705e+00 7.9938822461808012e+00
ITEM: ATOMS id type xs ys zs
9 3 0.255763 0.537648 0.259465
12 1 0.268085 0.668865 0.432606
1 1 0.811873 0.245551 0.438564
2 1 0.643692 0.69916 0.228426
3 1 0.871797 0.354338 0.24286
4 1 0.796232 0.593121 0.13943
7 1 0.574152 0.587968 0.431434
16 2 0.582461 0.908476 0.167558
17 2 0.999869 0.286421 0.158436
18 2 0.864947 0.690402 0.000168394
5 1 0.13993 0.799265 0.595652
10 3 0.473418 0.355781 0.853858
13 3 0.427124 0.695732 0.531482
14 2 0.455623 0.26607 0.999832
19 2 0.191606 0.999792 0.651045
20 2 0.000131495 0.805017 0.521796
21 2 0.14132 0.667967 0.750748
6 1 0.658476 0.355195 0.540706
8 3 0.665379 0.000208241 0.839633
11 1 0.605786 0.21504 0.76344
15 2 0.88701 0.0632523 0.497694
ITEM: TIMESTEP
200
ITEM: NUMBER OF ATOMS
21
ITEM: BOX BOUNDS ss ss ss
9.6731055464477855e-01 8.4776869263810770e+00
2.7471425943470464e+00 7.6119303370498761e+00
2.0057488004433361e+00 8.0174905812259247e+00
ITEM: ATOMS id type xs ys zs
9 3 0.249053 0.529733 0.263972
12 1 0.260525 0.658913 0.435124
1 1 0.8063 0.242668 0.436439
2 1 0.638621 0.688337 0.237102
3 1 0.869068 0.352533 0.242082
4 1 0.793414 0.588528 0.151203
7 1 0.568536 0.576868 0.433138
16 2 0.578957 0.87662 0.182191
17 2 0.999867 0.299705 0.184356
18 2 0.862311 0.670999 0.000166341
5 1 0.127521 0.789851 0.597032
10 3 0.463929 0.347329 0.860126
13 3 0.423171 0.69391 0.527178
14 2 0.431153 0.250521 0.999834
19 2 0.172333 0.999794 0.650674
20 2 0.000133149 0.80015 0.520413
21 2 0.118507 0.671645 0.754536
6 1 0.652301 0.35401 0.538277
8 3 0.665043 0.000205559 0.838648
11 1 0.600298 0.214034 0.765327
15 2 0.868877 0.0524394 0.495244
ITEM: TIMESTEP
210
ITEM: NUMBER OF ATOMS
21
ITEM: BOX BOUNDS ss ss ss
9.0199339651353094e-01 8.5454769986666221e+00
2.7610095703224369e+00 7.6287599748081476e+00
1.9894887193791535e+00 7.9924746120701800e+00
ITEM: ATOMS id type xs ys zs
9 3 0.25335 0.525628 0.266179
12 1 0.266778 0.652738 0.439276
1 1 0.795939 0.236368 0.435861
2 1 0.634243 0.685737 0.245784
3 1 0.864636 0.35459 0.238615
4 1 0.789992 0.585832 0.155089
7 1 0.568087 0.567561 0.435633
16 2 0.56682 0.873276 0.172631
17 2 0.999869 0.28216 0.191599
18 2 0.846146 0.673505 0.000166584
5 1 0.1331 0.7867 0.599532
10 3 0.460853 0.340524 0.874167
13 3 0.428689 0.700286 0.527643
14 2 0.421952 0.231909 0.999833
19 2 0.170293 0.999795 0.643117
20 2 0.00013083 0.805434 0.511998
21 2 0.116545 0.669103 0.755685
6 1 0.649037 0.348097 0.54255
8 3 0.665652 0.000205434 0.842611
11 1 0.598343 0.210649 0.767042
15 2 0.845058 0.045371 0.515986
ITEM: TIMESTEP
220
ITEM: NUMBER OF ATOMS
21
ITEM: BOX BOUNDS ss ss ss
9.4576678269380154e-01 8.4918725506290347e+00
2.7921753619171619e+00 7.6237238514580250e+00
1.9919954101013835e+00 7.9882624405987652e+00
ITEM: ATOMS id type xs ys zs
9 3 0.248892 0.522916 0.266293
12 1 0.266647 0.648936 0.441091
1 1 0.795608 0.226464 0.431787
2 1 0.636079 0.687977 0.247671
3 1 0.875986 0.34965 0.238324
4 1 0.795003 0.587116 0.151016
7 1 0.569728 0.562271 0.436534
16 2 0.562182 0.858742 0.166886
17 2 0.999867 0.261424 0.177701
18 2 0.839832 0.694637 0.00016677
5 1 0.126206 0.78593 0.594135
10 3 0.458436 0.333113 0.882626
13 3 0.432013 0.709733 0.527889
14 2 0.422768 0.197298 0.999833
19 2 0.168772 0.999793 0.632917
20 2 0.000132519 0.80086 0.510924
21 2 0.109829 0.662284 0.749956
6 1 0.651471 0.336503 0.547452
8 3 0.671493 0.000206973 0.84161
11 1 0.598712 0.204003 0.765267
15 2 0.844539 0.0485848 0.526744
ITEM: TIMESTEP
230
ITEM: NUMBER OF ATOMS
21
ITEM: BOX BOUNDS ss ss ss
8.8982135411201446e-01 8.4320032948784434e+00
2.8239861625913667e+00 7.5986965324287850e+00
1.9646782583030438e+00 7.9481022407322444e+00
ITEM: ATOMS id type xs ys zs
9 3 0.253783 0.523133 0.274092
12 1 0.275097 0.650069 0.447991
1 1 0.801393 0.216916 0.433239
2 1 0.646791 0.690402 0.251332
3 1 0.887874 0.344031 0.248217
4 1 0.801627 0.590949 0.151664
7 1 0.577582 0.563313 0.445488
16 2 0.563602 0.852613 0.171888
17 2 0.999867 0.240166 0.156888
18 2 0.849107 0.715092 0.000167128
5 1 0.132478 0.786621 0.592173
10 3 0.465131 0.324726 0.894126
13 3 0.441215 0.720506 0.535773
14 2 0.443776 0.174239 0.999833
19 2 0.182799 0.999791 0.636855
20 2 0.000132588 0.790816 0.502881
21 2 0.12071 0.664451 0.747176
6 1 0.657084 0.328583 0.55629
8 3 0.682175 0.000209437 0.845996
11 1 0.602467 0.199967 0.771513
15 2 0.866487 0.040596 0.524367
ITEM: TIMESTEP
240
ITEM: NUMBER OF ATOMS
21
ITEM: BOX BOUNDS ss ss ss
9.2946500031557788e-01 8.3462100612810755e+00
2.8466767827381436e+00 7.5493844889276751e+00
2.0212136646376684e+00 8.0077414958339190e+00
ITEM: ATOMS id type xs ys zs
9 3 0.250434 0.526924 0.268928
12 1 0.273506 0.6587 0.43887
1 1 0.811626 0.209235 0.421905
2 1 0.655925 0.692923 0.240244
3 1 0.89665 0.344745 0.24142
4 1 0.810241 0.594904 0.139001
7 1 0.583877 0.571673 0.44037
16 2 0.568013 0.868079 0.165024
17 2 0.999865 0.233607 0.141034
18 2 0.866061 0.707837 0.000167042
5 1 0.128841 0.791216 0.573188
10 3 0.468144 0.317069 0.885824
13 3 0.442898 0.732059 0.529105
14 2 0.457412 0.161924 0.999833
19 2 0.177957 0.999787 0.627022
20 2 0.00013483 0.787882 0.485272
21 2 0.120072 0.66971 0.735027
6 1 0.65875 0.329782 0.544306
8 3 0.691163 0.000212643 0.834787
11 1 0.602976 0.201246 0.762945
15 2 0.888492 0.0303996 0.488815
ITEM: TIMESTEP
250
ITEM: NUMBER OF ATOMS
21
ITEM: BOX BOUNDS ss ss ss
9.2367149306128604e-01 8.3381162119983703e+00
2.8661182154830276e+00 7.5926964163868398e+00
1.9493758769846676e+00 8.0972719206484669e+00
ITEM: ATOMS id type xs ys zs
9 3 0.249963 0.519187 0.277509
12 1 0.273442 0.657529 0.438923
1 1 0.815728 0.201504 0.423206
2 1 0.65771 0.682705 0.245238
3 1 0.891716 0.342648 0.245563
4 1 0.813792 0.580509 0.148647
7 1 0.587876 0.572811 0.443187
16 2 0.587508 0.863091 0.18326
17 2 0.999865 0.229271 0.159396
18 2 0.882323 0.686885 0.000162657
5 1 0.129645 0.780083 0.564728
10 3 0.469261 0.302002 0.874634
13 3 0.442276 0.72529 0.529838
14 2 0.466453 0.174875 0.999837
19 2 0.167324 0.999788 0.61967
20 2 0.000134872 0.776346 0.472944
21 2 0.118599 0.663542 0.717046
6 1 0.656846 0.326733 0.536154
8 3 0.694051 0.00021157 0.823672
11 1 0.603373 0.198004 0.7547
15 2 0.887655 0.00476642 0.472956
ITEM: TIMESTEP
260
ITEM: NUMBER OF ATOMS
21
ITEM: BOX BOUNDS ss ss ss
9.3332122253860705e-01 8.4081423208595911e+00
2.8447676768550796e+00 7.6040214708035156e+00
2.0118398960597546e+00 8.1982409251243471e+00
ITEM: ATOMS id type xs ys zs
9 3 0.246559 0.517332 0.268204
12 1 0.271163 0.663538 0.424554
1 1 0.808104 0.20655 0.413364
2 1 0.652156 0.681424 0.234904
3 1 0.877211 0.343132 0.231777
4 1 0.808871 0.575446 0.138681
7 1 0.584095 0.583688 0.429997
16 2 0.590804 0.891757 0.169617
17 2 0.999866 0.24229 0.162048
18 2 0.870669 0.654823 0.000161645
5 1 0.124751 0.782067 0.550173
10 3 0.462836 0.297272 0.858504
13 3 0.435826 0.722564 0.518933
14 2 0.469981 0.199077 0.999838
19 2 0.146066 0.99979 0.596523
20 2 0.000133782 0.772948 0.453211
21 2 0.108208 0.652122 0.702303
6 1 0.650992 0.328457 0.517875
8 3 0.688825 0.00795448 0.807811
11 1 0.600966 0.199914 0.737483
15 2 0.858372 0.000210117 0.461836
ITEM: TIMESTEP
270
ITEM: NUMBER OF ATOMS
21
ITEM: BOX BOUNDS ss ss ss
9.3923748767519988e-01 8.4503696223654199e+00
2.8463456427245934e+00 7.6810795154878289e+00
1.8954879725943408e+00 8.2034532615493578e+00
ITEM: ATOMS id type xs ys zs
9 3 0.245904 0.505416 0.2828
12 1 0.270961 0.656655 0.432756
1 1 0.798599 0.208179 0.427685
2 1 0.649429 0.678873 0.247999
3 1 0.871405 0.324809 0.245328
4 1 0.802611 0.563731 0.157072
7 1 0.581189 0.581024 0.439084
16 2 0.603983 0.86636 0.189678
17 2 0.999867 0.255337 0.189281
18 2 0.866802 0.645414 0.00015853
5 1 0.117655 0.774409 0.560243
10 3 0.457735 0.288251 0.8582
13 3 0.43218 0.707215 0.529194
14 2 0.479764 0.213127 0.999841
19 2 0.132221 0.999793 0.604145
20 2 0.000133136 0.751191 0.457976
21 2 0.0991818 0.643486 0.698325
6 1 0.649867 0.322502 0.524052
8 3 0.688127 0.00749829 0.810825
11 1 0.601038 0.195263 0.738051
15 2 0.835192 0.000206837 0.488072
ITEM: TIMESTEP
280
ITEM: NUMBER OF ATOMS
21
ITEM: BOX BOUNDS ss ss ss
8.9331048326820872e-01 8.5217761274539114e+00
2.8719659062487630e+00 7.6619188572066639e+00
2.0036911758616109e+00 8.1650811070114795e+00
ITEM: ATOMS id type xs ys zs
9 3 0.250785 0.501872 0.272812
12 1 0.272203 0.659044 0.425079
1 1 0.786837 0.206015 0.423011
2 1 0.648668 0.689696 0.236745
3 1 0.866027 0.309146 0.234385
4 1 0.794348 0.561801 0.142793
7 1 0.578062 0.581101 0.431222
16 2 0.594738 0.902747 0.162804
17 2 0.999869 0.241012 0.174506
18 2 0.844567 0.645897 0.000162301
5 1 0.116505 0.783746 0.556568
10 3 0.455781 0.284208 0.855652
13 3 0.431883 0.704689 0.525397
14 2 0.489209 0.213191 0.999838
19 2 0.128449 0.999791 0.606431
20 2 0.000131088 0.746592 0.4469
21 2 0.0976883 0.645873 0.704455
6 1 0.645465 0.326893 0.520523
8 3 0.688464 0.00020877 0.813009
11 1 0.5993 0.190758 0.735477
15 2 0.826019 0.0119938 0.502825
ITEM: TIMESTEP
290
ITEM: NUMBER OF ATOMS
21
ITEM: BOX BOUNDS ss ss ss
8.7705338642972830e-01 8.4235813658050080e+00
2.8724572931153722e+00 7.7077736628561304e+00
1.9318250892259443e+00 8.1166690534602157e+00
ITEM: ATOMS id type xs ys zs
9 3 0.259064 0.4959 0.284496
12 1 0.273896 0.652008 0.43715
1 1 0.795624 0.200326 0.432528
2 1 0.660216 0.69675 0.248736
3 1 0.879892 0.299664 0.245336
4 1 0.803134 0.548967 0.156272
7 1 0.584976 0.573155 0.439691
16 2 0.604706 0.868755 0.18008
17 2 0.999867 0.209507 0.183759
18 2 0.858592 0.657735 0.000161686
5 1 0.115459 0.779111 0.564296
10 3 0.464229 0.281167 0.856306
13 3 0.439117 0.695478 0.535721
14 2 0.494693 0.204233 0.999838
19 2 0.129744 0.999793 0.622807
20 2 0.000132511 0.747519 0.464082
21 2 0.100183 0.656724 0.711224
6 1 0.650431 0.335284 0.535233
8 3 0.702487 0.000206812 0.820957
11 1 0.608277 0.186133 0.744511
15 2 0.850975 0.0275961 0.530359
ITEM: TIMESTEP
300
ITEM: NUMBER OF ATOMS
21
ITEM: BOX BOUNDS ss ss ss
7.7462494701391271e-01 8.3525166704801794e+00
2.8872332574207875e+00 7.6792960050909418e+00
2.0524957953597611e+00 8.0679516704733842e+00
ITEM: ATOMS id type xs ys zs
9 3 0.274556 0.498036 0.274056
12 1 0.282486 0.651891 0.433205
1 1 0.806519 0.195911 0.424253
2 1 0.674908 0.701451 0.241877
3 1 0.887689 0.299306 0.233543
4 1 0.813198 0.545875 0.140177
7 1 0.592587 0.576804 0.428837
16 2 0.604287 0.896314 0.154664
17 2 0.999868 0.17072 0.156132
18 2 0.869234 0.639462 0.000166238
5 1 0.127409 0.785714 0.557576
10 3 0.47867 0.280253 0.852406
13 3 0.449387 0.698804 0.531356
14 2 0.485932 0.192052 0.999834
19 2 0.145916 0.999791 0.610951
20 2 0.000131963 0.765302 0.45618
21 2 0.112965 0.664434 0.717675
6 1 0.660196 0.339789 0.535221
8 3 0.7159 0.000208678 0.822307
11 1 0.619829 0.182285 0.746743
15 2 0.873721 0.0392466 0.525942
ITEM: TIMESTEP
310
ITEM: NUMBER OF ATOMS
21
ITEM: BOX BOUNDS ss ss ss
8.1810893051056266e-01 8.1601860599644063e+00
2.9032714554041736e+00 7.7304279349864693e+00
1.9556371100260694e+00 7.9915668585834565e+00
ITEM: ATOMS id type xs ys zs
9 3 0.279266 0.492627 0.29066
12 1 0.283451 0.639676 0.451516
1 1 0.827266 0.193677 0.441544
2 1 0.692805 0.690612 0.261635
3 1 0.905965 0.294174 0.249014
4 1 0.833259 0.535816 0.157656
7 1 0.601528 0.571789 0.442531
16 2 0.634466 0.858786 0.186408
17 2 0.999864 0.165294 0.164358
18 2 0.906982 0.619645 0.000165675
5 1 0.124958 0.775921 0.569157
10 3 0.48977 0.274915 0.859743
13 3 0.453761 0.69395 0.546411
14 2 0.465261 0.173606 0.999834
19 2 0.157377 0.999793 0.610385
20 2 0.000136201 0.769759 0.479418
21 2 0.108419 0.664369 0.726465
6 1 0.680451 0.329015 0.549951
8 3 0.734933 0.000207161 0.834094
11 1 0.635937 0.178579 0.760011
15 2 0.900004 0.0279542 0.532284
ITEM: TIMESTEP
320
ITEM: NUMBER OF ATOMS
21
ITEM: BOX BOUNDS ss ss ss
7.8005628707035712e-01 8.1429058851349900e+00
2.9092037732387941e+00 7.6819645540898396e+00
2.0090935036170894e+00 7.8488305289703391e+00
ITEM: ATOMS id type xs ys zs
9 3 0.283727 0.497541 0.291496
12 1 0.287546 0.641525 0.460144
1 1 0.832374 0.199159 0.45237
2 1 0.69785 0.687035 0.265823
3 1 0.901201 0.29698 0.247521
4 1 0.838288 0.542405 0.153268
7 1 0.603406 0.574446 0.452814
16 2 0.644567 0.897238 0.179813
17 2 0.999864 0.164613 0.1414
18 2 0.902313 0.608796 0.000171241
5 1 0.132304 0.784764 0.578517
10 3 0.49175 0.278141 0.875673
13 3 0.452525 0.706667 0.556747
14 2 0.450655 0.159318 0.999829
19 2 0.174776 0.99979 0.60594
20 2 0.000135817 0.77818 0.473431
21 2 0.10766 0.680031 0.74686
6 1 0.689513 0.325866 0.555619
8 3 0.73984 0.000209522 0.852911
11 1 0.643189 0.183325 0.774515
15 2 0.89118 0.00981858 0.528722
ITEM: TIMESTEP
330
ITEM: NUMBER OF ATOMS
21
ITEM: BOX BOUNDS ss ss ss
9.1348589329236207e-01 8.1020737008964492e+00
2.8740459070134889e+00 7.7161843091174873e+00