LAMMPS (7 Feb 2024 - Development)
OMP_NUM_THREADS environment is not set. Defaulting to 1 thread. (src/comm.cpp:98)
  using 1 OpenMP thread(s) per MPI task
units		real
atom_style	atomic
newton off
thermo 1
dump mydmp all atom 10 dump.lammpstrj
boundary s s s
read_data aspirin.data
Reading data file ...
  orthogonal box = (0 0 0) to (10 10 10)
  1 by 1 by 1 MPI processor grid
  reading atoms ...
  21 atoms
  read_data CPU = 0.001 seconds
pair_style	schnetpack
pair_coeff	* * deployed_model 6 1 8
mass 1 12.0
mass 2 1.0
mass 3 16.0
neighbor	1.0 bin
neigh_modify    delay 0 every 1 check no
fix		1 all nve
timestep	0.5
compute atomicenergies all pe/atom
compute totalatomicenergy all reduce sum c_atomicenergies
thermo_style custom step time temp pe c_totalatomicenergy etotal press spcpu cpuremain
run 5000
Neighbor list info ...
  update: every = 1 steps, delay = 0 steps, check = no
  max neighbors/atom: 2000, page size: 100000
  master list distance cutoff = 6
  ghost atom cutoff = 6
  binsize = 3, bins = 3 2 3
  1 neighbor lists, perpetual/occasional/extra = 1 0 0
  (1) pair schnetpack, perpetual
      attributes: full, newton off
      pair build: full/bin/atomonly
      stencil: full/bin/3d
      bin: standard
Per MPI rank memory allocation (min/avg/max) = 2.66 | 2.66 | 2.66 Mbytes
   Step          Time           Temp          PotEng     c_totalatomicenergy     TotEng         Press          S/CPU         CPULeft    
         0   0              0             -406270.31      0             -406270.31      0              0              0            
         1   0.5            12.114175     -406271.06      0             -406270.34      140.29879      1.8709285      2671.9417    
         2   1              45.424082     -406273.06      0             -406270.35      525.40806      0.07273727     35692.234    
         3   1.5            91.892859     -406275.88      0             -406270.4       1060.8756      2.7736163      24390.599    
         4   2              141.15975     -406278.84      0             -406270.43      1625.9039      2.8028401      18734.909    
         5   2.5            183.48887     -406281.41      0             -406270.47      2108.2921      2.5646078      15374.46     
         6   3              212.09491     -406283.12      0             -406270.48      2431.1398      2.3927146      13157.347    
         7   3.5            224.89133     -406283.88      0             -406270.47      2572.0875      3.3333994      11489.449    
         8   4              225.54421     -406283.88      0             -406270.43      2574.391       2.2580507      10327.599    
         9   4.5            223.1183      -406283.69      0             -406270.39      2542.1766      2.9647384      9365.2993    
        10   5              228.99987     -406284         0             -406270.35      2605.132       2.6110023      8618.1952    
        11   5.5            251.4873      -406285.34      0             -406270.35      2857.208       2.3791583      8023.7855    
        12   6              291.02791     -406287.72      0             -406270.37      3303.1835      2.7592593      7504.3066    
        13   6.5            339.53701     -406290.66      0             -406270.41      3851.7055      3.4074933      7038.2434    
        14   7              384.40349     -406293.38      0             -406270.46      4360.9411      50.249277      6541.2891    
        15   7.5            414.26169     -406295.19      0             -406270.49      4703.3434      53.250615      6110.2195    
        16   8              422.94879     -406295.72      0             -406270.5       4809.4588      49.321813      5733.4974    
        17   8.5            410.28553     -406294.94      0             -406270.48      4676.1733      55.967655      5400.3874    
        18   9              381.09956     -406293.16      0             -406270.44      4356.0539      39.980948      5106.2651    
        19   9.5            343.68603     -406290.88      0             -406270.39      3941.0875      34.767195      4844.0837    
        20   10             307.97059     -406288.72      0             -406270.36      3543.1116      53.267126      4605.6301    
        21   10.5           283.11684     -406287.22      0             -406270.34      3267.0885      52.307249      4389.9663    
        22   11             274.87601     -406286.72      0             -406270.33      3180.2108      48.045116      4194.2905    
        23   11.5           283.71522     -406287.28      0             -406270.37      3289.1588      53.244969      4015.188     
        24   12             304.74647     -406288.56      0             -406270.39      3538.2731      51.687899      3851.1267    
        25   12.5           329.58419     -406290.06      0             -406270.41      3830.7752      52.942948      3700.0975    
        26   13             349.10069     -406291.28      0             -406270.47      4060.9532      53.215595      3560.6658    
        27   13.5           355.9384      -406291.69      0             -406270.47      4143.545       48.473339      3431.8996    
        28   14             346.42468     -406291.12      0             -406270.47      4035.9737      53.299009      3311.9979    
        29   14.5           322.00605     -406289.62      0             -406270.43      3754.9889      39.582594      3201.4785    
        30   15             289.84931     -406287.69      0             -406270.41      3383.822       42.580626      3098.0306    
        31   15.5           261.52633     -406285.94      0             -406270.35      3057.3206      51.265328      3000.6176    
        32   16             248.64405     -406285.16      0             -406270.33      2911.4464      53.16236       2909.1836    
        33   16.5           257.16485     -406285.69      0             -406270.36      3017.0746      53.466406      2823.2738    
        34   17             284.12945     -406287.31      0             -406270.37      3341.2327      40.313988      2743.3077    
        35   17.5           319.21168     -406289.47      0             -406270.44      3764.3889      53.131922      2667.0608    
        36   18             349.95271     -406291.31      0             -406270.45      4140.8148      53.463842      2595.0326    
        37   18.5           366.94614     -406292.34      0             -406270.47      4358.8837      48.087519      2527.1773    
        38   19             366.23714     -406292.31      0             -406270.48      4369.4634      47.80045       2462.9086    
        39   19.5           349.26653     -406291.28      0             -406270.46      4186.2582      52.367139      2401.7026    
        40   20             321.74724     -406289.59      0             -406270.41      3874.0858      46.138622      2343.8755    
        41   20.5           292.08091     -406287.78      0             -406270.37      3531.5641      46.687808      2288.8374    
        42   21             269.36063     -406286.41      0             -406270.35      3267.913       53.57962       2236.094     
        43   21.5           260.90173     -406285.91      0             -406270.35      3172.5735      40.10005       2186.5261    
        44   22             269.69463     -406286.44      0             -406270.36      3282.8311      51.796325      2138.5758    
        45   22.5           293.1496      -406287.84      0             -406270.37      3567.2559      29.552171      2094.356     
        46   23             323.96441     -406289.72      0             -406270.41      3936.3067      40.12172       2051.0973    
        47   23.5           352.59274     -406291.47      0             -406270.45      4273.5117      53.565166      2009.019     
        48   24             370.05974     -406292.53      0             -406270.47      4470.9017      53.993969      1968.678     
        49   24.5           370.46957     -406292.56      0             -406270.48      4459.597       53.920163      1929.9854    
        50   25             352.63554     -406291.5       0             -406270.48      4228.5976      54.01682       1892.8364    
        51   25.5           321.17673     -406289.56      0             -406270.42      3836.4192      53.732103      1857.153     
        52   26             286.18394     -406287.44      0             -406270.38      3405.5066      53.424291      1822.8515    
        53   26.5           260.09408     -406285.84      0             -406270.34      3083.9965      42.153231      1790.3111    
        54   27             252.40787     -406285.38      0             -406270.33      2983.1538      53.470586      1758.5149    
        55   27.5           264.85379     -406286.16      0             -406270.37      3121.5248      52.407141      1727.9084    
        56   28             290.52627     -406287.72      0             -406270.4       3416.578       44.682966      1698.6856    
        57   28.5           317.77847     -406289.41      0             -406270.46      3731.4915      54.173397      1670.1473    
        58   29             335.68518     -406290.47      0             -406270.46      3938.8934      48.065535      1642.7923    
        59   29.5           337.8744      -406290.62      0             -406270.48      3964.6068      39.600328      1616.7364    
        60   30             323.51652     -406289.75      0             -406270.46      3798.4079      54.074038      1590.9916    
        61   30.5           296.44627     -406288.09      0             -406270.42      3483.8571      35.360134      1566.8828    
        62   31             263.85705     -406286.12      0             -406270.39      3103.8214      53.627708      1542.7835    
        63   31.5           234.67699     -406284.34      0             -406270.35      2762.2201      40.446603      1519.9248    
        64   32             217.27536     -406283.28      0             -406270.33      2557.1908      52.829138      1497.3329    
        65   32.5           216.78748     -406283.28      0             -406270.36      2548.9619      41.29708       1475.8368    
        66   33             233.11382     -406284.25      0             -406270.35      2735.6457      40.06753       1455.0469    
        67   33.5           260.77698     -406285.94      0             -406270.39      3051.7985      53.003631      1434.4284    
        68   34             290.82461     -406287.78      0             -406270.44      3391.9319      53.61389       1414.4001    
        69   34.5           313.85931     -406289.19      0             -406270.48      3647.0884      46.911108      1395.1423    
        70   35             322.89123     -406289.72      0             -406270.47      3738.1849      53.17034       1376.2574    
        71   35.5           315.29026     -406289.25      0             -406270.45      3637.617       49.791414      1357.9926    
        72   36             293.93701     -406287.97      0             -406270.45      3381.0482      53.937639      1340.1288    
        73   36.5           267.09597     -406286.31      0             -406270.39      3064.7497      53.683055      1322.7599    
        74   37             246.13047     -406285.03      0             -406270.36      2819.0028      37.897083      1306.3765    
        75   37.5           241.07309     -406284.72      0             -406270.35      2757.9034      54.274149      1289.9064    
        76   38             255.89861     -406285.59      0             -406270.34      2926.335       54.005534      1273.8751    
        77   38.5           286.39376     -406287.47      0             -406270.4       3276.4355      44.092823      1258.526     
        78   39             322.40142     -406289.66      0             -406270.44      3693.1644      54.315591      1243.3004    
        79   39.5           352.79472     -406291.5       0             -406270.47      4050.1962      51.453876      1228.5237    
        80   40             369.86108     -406292.53      0             -406270.48      4259.0252      49.876414      1214.1536    
        81   40.5           370.99125     -406292.56      0             -406270.45      4288.0045      48.945223      1200.1611    
        82   41             358.28726     -406291.81      0             -406270.45      4158.561       54.116815      1186.3922    
        83   41.5           337.35649     -406290.53      0             -406270.42      3932.6838      53.426421      1172.9689    
        84   42             315.83931     -406289.22      0             -406270.39      3697.2349      53.41033       1159.865     
        85   42.5           301.64377     -406288.34      0             -406270.36      3544.087       52.215722      1147.0937    
        86   43             300.53845     -406288.28      0             -406270.36      3541.6163      53.793273      1134.587     
        87   43.5           313.95917     -406289.09      0             -406270.38      3707.8258      49.840279      1122.4506    
        88   44             338.22786     -406290.56      0             -406270.4       4000.1405      53.949238      1110.5042    
        89   44.5           365.65123     -406292.22      0             -406270.42      4328.1227      53.366976      1098.8371    
        90   45             387.10886     -406293.53      0             -406270.45      4584.362       52.538732      1087.4449    
        91   45.5           394.90128     -406294.03      0             -406270.49      4678.3654      45.847565      1076.4525    
        92   46             385.00191     -406293.44      0             -406270.49      4563.0556      53.895441      1065.5249    
        93   46.5           358.41643     -406291.81      0             -406270.45      4250.5653      53.788794      1054.8338    
        94   47             321.64739     -406289.59      0             -406270.42      3817.7331      50.567801      1044.4316    
        95   47.5           285.55148     -406287.38      0             -406270.35      3392.9755      53.808982      1034.1865    
        96   48             261.77319     -406285.94      0             -406270.33      3114.5341      53.626661      1024.1576    
        97   48.5           257.57307     -406285.69      0             -406270.33      3069.3209      51.113866      1014.3815    
        98   49             272.05977     -406286.59      0             -406270.37      3247.8346      52.608838      1004.7767    
        99   49.5           296.82048     -406288.12      0             -406270.43      3550.9411      48.71147       995.44082    
       100   50             320.44119     -406289.56      0             -406270.46      3842.9666      52.227249      986.22353    
       101   50.5           333.65659     -406290.34      0             -406270.45      4012.712       47.271621      977.28577    
       102   51             332.04233     -406290.25      0             -406270.45      4005.7393      54.101915      968.39457    
       103   51.5           316.11661     -406289.28      0             -406270.44      3826.2058      51.6072        959.71815    
       104   52             290.30903     -406287.72      0             -406270.41      3525.455       50.681075      951.22483    
       105   52.5           261.65927     -406286         0             -406270.4       3187.3172      60.159614      942.74806    
       106   53             238.40154     -406284.56      0             -406270.35      2911.5662      56.979284      934.47374    
       107   53.5           227.87139     -406283.94      0             -406270.35      2788.2882      51.933594      926.43173    
       108   54             234.04729     -406284.31      0             -406270.36      2866.9923      53.805397      918.50791    
       109   54.5           255.79713     -406285.62      0             -406270.38      3134.2258      53.638869      910.73176    
       110   55             286.93961     -406287.5       0             -406270.39      3514.1015      52.805141      903.10972    
       111   55.5           318.23778     -406289.41      0             -406270.43      3893.3048      51.269484      895.64968    
       112   56             340.29156     -406290.75      0             -406270.46      4157.241       53.668641      888.28442    
       113   56.5           346.23709     -406291.12      0             -406270.48      4223.2051      53.513696      881.05153    
       114   57             333.70952     -406290.38      0             -406270.48      4063.8865      53.681288      873.94271    
       115   57.5           306.02787     -406288.69      0             -406270.44      3721.0558      48.194281      867.0473     
       116   58             272.13601     -406286.62      0             -406270.4       3304.2344      53.051622      860.19043    
       117   58.5           244.23884     -406284.91      0             -406270.35      2961.6919      50.135102      853.49622    
       118   59             232.94743     -406284.22      0             -406270.33      2821.6539      53.508963      846.86308    
       119   59.5           242.07765     -406284.78      0             -406270.35      2929.7843      52.236945      840.35977    
       120   60             266.63673     -406286.28      0             -406270.39      3225.5186      48.007119      834.03313    
       121   60.5           295.66145     -406288.06      0             -406270.44      3576.7878      53.442921      827.7253     
       122   61             317.76738     -406289.41      0             -406270.46      3846.7762      42.090731      821.72236    
       123   61.5           325.57459     -406289.88      0             -406270.47      3946.6188      53.477592      815.61604    
       124   62             317.16373     -406289.38      0             -406270.47      3852.4376      53.367352      809.60943    
       125   62.5           295.27384     -406288.03      0             -406270.43      3595.781       50.351925      803.74239    
       126   63             265.9765      -406286.25      0             -406270.39      3248.4175      51.206214      797.95534    
       127   63.5           237.40107     -406284.53      0             -406270.38      2907.9661      53.037216      792.23326    
       128   64             218.04603     -406283.34      0             -406270.34      2678.0216      49.135727      786.65727    
       129   64.5           214.38814     -406283.12      0             -406270.34      2638.6889      53.250671      781.10803    
       130   65             228.42336     -406283.97      0             -406270.35      2815.3524      49.704329      775.69407    
       131   65.5           256.42002     -406285.69      0             -406270.4       3162.3266      52.940773      770.31675    
       132   66             289.8431      -406287.72      0             -406270.44      3574.0637      46.919071      765.11001    
       133   66.5           318.16705     -406289.44      0             -406270.47      3920.4656      49.27854       759.9439     
       134   67             332.3905      -406290.31      0             -406270.5       4090.9143      53.4538        754.79706    
       135   67.5           327.85813     -406290.03      0             -406270.49      4029.1358      48.982758      749.7877     
       136   68             305.89222     -406288.69      0             -406270.45      3752.7961      40.834279      744.99742    
       137   68.5           274.02816     -406286.75      0             -406270.41      3355.6649      53.314754      740.07324    
       138   69             244.17485     -406284.91      0             -406270.35      2984.328       36.349121      735.52856    
       139   69.5           228.33341     -406283.94      0             -406270.33      2785.3939      52.516126      730.75271    
       140   70             233.09367     -406284.25      0             -406270.35      2838.5388      49.109647      726.09066    
       141   70.5           256.30373     -406285.66      0             -406270.38      3116.9471      53.42388       721.43778    
       142   71             288.53522     -406287.62      0             -406270.42      3506.2517      52.775364      716.85806    
       143   71.5           318.26163     -406289.44      0             -406270.46      3867.638       49.13488       712.3898     
       144   72             336.96002     -406290.56      0             -406270.47      4098.8771      53.201564      707.93085    
       145   72.5           341.30306     -406290.81      0             -406270.47      4159.8388      50.631706      703.56507    
       146   73             332.68898     -406290.28      0             -406270.45      4066.43        53.251823      699.22655    
       147   73.5           315.83874     -406289.25      0             -406270.42      3874.1675      46.950063      695.02999    
       148   74             297.47682     -406288.12      0             -406270.39      3663.2834      48.217314      690.87152    
       149   74.5           285.09279     -406287.34      0             -406270.35      3524.6565      51.371314      686.72713    
       150   75             285.14672     -406287.34      0             -406270.34      3538.0598      53.618906      682.61134    
       151   75.5           300.84341     -406288.28      0             -406270.35      3743.9472      52.852449      678.55852    
       152   76             330.35382     -406290.06      0             -406270.37      4120.1197      52.01047       674.56854    
       153   76.5           366.7643      -406292.28      0             -406270.42      4580.2134      47.968604      670.68178    
       154   77             400.2025      -406294.31      0             -406270.45      5000.3243      54.013748      666.77182    
       155   77.5           421.09285     -406295.59      0             -406270.49      5260.4048      53.413622      662.91858    
       156   78             423.08456     -406295.72      0             -406270.5       5281.4871      52.660673      659.1228     
       157   78.5           404.98592     -406294.62      0             -406270.48      5049.8914      52.156382      655.38079    
       158   79             371.54833     -406292.59      0             -406270.44      4626.5184      50.442359      651.70587    
       159   79.5           332.62202     -406290.22      0             -406270.39      4135.5283      53.819703      648.03906    
       160   80             300.13805     -406288.25      0             -406270.36      3726.1238      49.37947       644.46839    
       161   80.5           283.1522      -406287.22      0             -406270.34      3510.8525      54.038091      640.88936    
       162   81             283.57994     -406287.28      0             -406270.38      3513.3528      52.730893      637.36797    
       163   81.5           295.75788     -406288.03      0             -406270.4       3663.8101      48.226388      633.94212    
       164   82             310.06064     -406288.91      0             -406270.42      3843.9517      53.764161      630.49483    
       165   82.5           317.78463     -406289.41      0             -406270.46      3946.771       53.784677      627.08889    
       166   83             314.13968     -406289.19      0             -406270.46      3912.6327      50.005373      623.76467    
       167   83.5           298.65889     -406288.25      0             -406270.45      3734.0824      49.82884       620.48208    
       168   84             274.2426      -406286.78      0             -406270.43      3444.6237      53.964607      617.19409    
       169   84.5           246.04694     -406285.06      0             -406270.39      3106.1501      51.673228      613.96829    
       170   85             220.59232     -406283.53      0             -406270.38      2799.1082      53.406051      610.76236    
       171   85.5           204.86503     -406282.56      0             -406270.35      2611.9464      53.109407      607.59668    
       172   86             204.64128     -406282.53      0             -406270.33      2619.5628      53.654885      604.46219    
       173   86.5           222.18828     -406283.59      0             -406270.35      2852.5857      49.644984      601.40575    
       174   87             254.6506      -406285.56      0             -406270.38      3275.0356      53.59961       598.34297    
       175   87.5           294.39737     -406287.97      0             -406270.42      3788.0967      51.757493      595.33329    
       176   88             331.4482      -406290.22      0             -406270.46      4262.0781      51.916524      592.35598    
       177   88.5           356.83264     -406291.75      0             -406270.48      4581.0359      53.914465      589.39264    
       178   89             365.49422     -406292.25      0             -406270.46      4680.9441      49.587934      586.50623    
       179   89.5           357.89498     -406291.78      0             -406270.44      4569.9483      48.953283      583.65889    
       180   90             340.11638     -406290.69      0             -406270.41      4328.3549      54.066241      580.79122    
       181   90.5           321.96479     -406289.56      0             -406270.37      4082.9118      49.07796       578.00509    
       182   91             313.22545     -406289.03      0             -406270.36      3958.2868      50.365053      575.23556    
       183   91.5           319.12949     -406289.38      0             -406270.35      4020.0191      53.349102      572.46686    
       184   92             337.66349     -406290.53      0             -406270.4       4242.0619      53.822176      569.72374    
       185   92.5           360.87394     -406291.94      0             -406270.42      4524.6693      54.048626      567.00803    
       186   93             379.18777     -406293.06      0             -406270.46      4748.8812      49.468841      564.36567    
       187   93.5           385.64017     -406293.47      0             -406270.48      4828.5298      46.067592      561.78976    
       188   94             377.73348     -406292.97      0             -406270.45      4732.3969      50.329601      559.19398    
       189   94.5           357.06419     -406291.72      0             -406270.43      4479.2147      54.201177      556.58933    
       190   95             328.1502      -406289.97      0             -406270.41      4123.5427      44.462378      554.11421    
       191   95.5           297.40092     -406288.12      0             -406270.4       3743.8571      53.910893      551.56552    
       192   96             272.15571     -406286.59      0             -406270.37      3431.2461      54.128887      549.04132    
       193   96.5           259.17194     -406285.78      0             -406270.33      3270.4891      50.129912      546.57978    
       194   97             262.41026     -406286         0             -406270.36      3311.4726      54.020278      544.10784    
       195   97.5           281.0833      -406287.12      0             -406270.37      3543.7532      53.744006      541.66339    
       196   98             309.24533     -406288.84      0             -406270.41      3891.334       43.922146      539.34568    
       197   98.5           337.63373     -406290.56      0             -406270.43      4236.8384      50.898268      536.9752     
       198   99             356.994       -406291.75      0             -406270.47      4464.5312      53.547231      534.60489    
       199   99.5           361.27026     -406292         0             -406270.46      4500.6641      53.527537      532.25838    
       200   100            349.62041     -406291.31      0             -406270.47      4337.7849      55.477508      529.91939    
       201   100.5          326.90147     -406289.91      0             -406270.42      4039.1538      45.636159      527.69629    
       202   101            302.5149      -406288.41      0             -406270.37      3722.8162      56.031004      525.39843    
       203   101.5          287.09322     -406287.47      0             -406270.35      3519.8422      56.104233      523.12249    
       204   102            287.77879     -406287.5       0             -406270.34      3516.7336      54.133994      520.88393    
       205   102.5          304.63245     -406288.53      0             -406270.37      3713.0031      54.143417      518.66696    
       206   103            330.72785     -406290.12      0             -406270.41      4023.9531      47.286374      516.53366    
       207   103.5          355.99414     -406291.66      0             -406270.43      4327.9275      53.893001      514.36075    
       208   104            372.0049      -406292.62      0             -406270.45      4523.6587      54.172754      512.20634    
       209   104.5          374.8232      -406292.81      0             -406270.47      4563.6178      51.619156      510.09331    
       210   105            364.98467     -406292.19      0             -406270.43      4453.3293      51.20028       508.00382    
       211   105.5          346.10563     -406291.06      0             -406270.43      4234.8951      54.022181      505.9108     
       212   106            323.56293     -406289.69      0             -406270.4       3971.8786      53.996631      503.83756    
       213   106.5          303.53987     -406288.47      0             -406270.37      3738.5583      51.73223       501.80182    
       214   107            291.99979     -406287.78      0             -406270.37      3607.8139      49.530152      499.80415    
       215   107.5          293.16829     -406287.84      0             -406270.37      3632.2199      49.877906      497.82174    
       216   108            307.70762     -406288.72      0             -406270.37      3820.7377      54.232541      495.82184    
       217   108.5          331.71626     -406290.19      0             -406270.41      4125.5088      54.101988      493.84119    
       218   109            357.57702     -406291.75      0             -406270.43      4452.0414      52.250115      491.89292    
       219   109.5          376.5193      -406292.91      0             -406270.46      4691.2459      50.69965       489.97503    
       220   110            381.73446     -406293.22      0             -406270.46      4758.4808      54.115512      488.04735    
       221   110.5          370.66124     -406292.56      0             -406270.47      4622.11        54.038398      486.13751    
       222   111            346.14125     -406291.06      0             -406270.43      4317.8548      50.327385      484.27409    
       223   111.5          315.9742      -406289.22      0             -406270.38      3943.2234      53.964109      482.39852    
       224   112            290.39652     -406287.69      0             -406270.38      3626.1714      48.823579      480.58113    
       225   112.5          277.88931     -406286.91      0             -406270.34      3472.9817      54.063487      478.73757    
       226   113            281.22721     -406287.12      0             -406270.36      3519.0746      50.388599      476.93868    
       227   113.5          296.28937     -406288.06      0             -406270.4       3714.0192      50.186292      475.15712    
       228   114            314.5695      -406289.19      0             -406270.43      3952.3783      53.777437      473.36319    
       229   114.5          327.57145     -406289.97      0             -406270.44      4128.0122      49.000423      471.62251    
       230   115            330.13339     -406290.12      0             -406270.44      4175.349       51.386239      469.87715    
       231   115.5          321.20526     -406289.59      0             -406270.44      4079.3835      53.760689      468.12898    
       232   116            302.90988     -406288.47      0             -406270.41      3864.6277      53.706131      466.39612    
       233   116.5          279.33401     -406287.06      0             -406270.41      3580.7889      54.153805      464.67481    
       234   117            255.80105     -406285.62      0             -406270.38      3294.4287      51.625152      462.98649    
       235   117.5          238.22718     -406284.56      0             -406270.36      3081.2672      50.632347      461.32008    
       236   118            231.90198     -406284.19      0             -406270.36      3010.402       52.199897      459.65564    
       237   118.5          239.55769     -406284.62      0             -406270.34      3118.4957      53.769676      457.99385    
       238   119            259.68432     -406285.88      0             -406270.39      3386.7114      44.205417      456.42638    
       239   119.5          286.33898     -406287.5       0             -406270.43      3737.5044      51.62609       454.80706    
       240   120            310.97018     -406289         0             -406270.46      4058.6308      53.853089      453.18519    
       241   120.5          325.55052     -406289.88      0             -406270.47      4244.8808      48.332276      451.61851    
       242   121            325.48613     -406289.88      0             -406270.47      4236.7311      50.811882      450.04474    
       243   121.5          311.3162      -406289         0             -406270.44      4042.5069      54.242822      448.45941    
       244   122            288.91518     -406287.62      0             -406270.4       3740.2827      53.865531      446.88943    
       245   122.5          267.75878     -406286.34      0             -406270.38      3454.1317      40.616924      445.44965    
       246   123            257.37899     -406285.69      0             -406270.34      3307.2146      51.9505        443.91758    
       247   123.5          262.9316      -406286.03      0             -406270.36      3364.6019      52.900226      442.39109    
       248   124            282.60786     -406287.25      0             -406270.4       3601.416       45.477032      440.9359     
       249   124.5          308.74055     -406288.84      0             -406270.44      3918.9679      53.746023      439.42766    
       250   125            331.84601     -406290.22      0             -406270.44      4197.4135      52.764515      437.93792    
       251   125.5          344.80228     -406291         0             -406270.44      4348.3903      51.633765      436.46776    
       252   126            344.75214     -406291         0             -406270.45      4337.7402      53.651313      434.99537    
       253   126.5          332.69409     -406290.28      0             -406270.45      4173.1454      53.854893      433.53317    
       254   127            312.18182     -406289.03      0             -406270.42      3905.8498      53.330367      432.08574    
       255   127.5          288.42088     -406287.59      0             -406270.4       3601.7344      38.83368       430.77977    
       256   128            267.52796     -406286.31      0             -406270.36      3335.8912      53.952809      429.35008    
       257   128.5          255.62732     -406285.59      0             -406270.35      3183.2099      53.62646       427.93345    
       258   129            257.14813     -406285.69      0             -406270.36      3197.4113      50.359547      426.54989    
       259   129.5          272.74082     -406286.62      0             -406270.37      3385.1016      53.509114      425.15546    
       260   130            298.2545      -406288.19      0             -406270.41      3693.2305      48.72488       423.80507    
       261   130.5          325.68985     -406289.84      0             -406270.43      4021.5157      52.838098      422.43587    
       262   131            346.02845     -406291.09      0             -406270.46      4258.3021      52.671898      421.07806    
       263   131.5          352.56662     -406291.5       0             -406270.48      4322.1372      47.435857      419.76816    
       264   132            343.25845     -406290.94      0             -406270.47      4190.195       50.185027      418.44731    
       265   132.5          321.58909     -406289.59      0             -406270.42      3907.7995      53.773458      417.11253    
       266   133            295.82053     -406288.03      0             -406270.4       3577.6323      48.747782      415.82176    
       267   133.5          276.21117     -406286.81      0             -406270.35      3324.6254      50.145623      414.53037    
       268   134            270.6938      -406286.5       0             -406270.36      3243.5226      54.039297      413.2231     
       269   134.5          281.04687     -406287.12      0             -406270.37      3354.1536      53.661729      411.9277     
       270   135            302.08121     -406288.41      0             -406270.4       3593.7974      40.49014       410.74795    
       271   135.5          324.68235     -406289.78      0             -406270.42      3854.742       52.690248      409.47694    
       272   136            340.42776     -406290.75      0             -406270.45      4038.7011      52.948349      408.21353    
       273   136.5          344.76733     -406291         0             -406270.45      4093.0384      49.706876      406.98056    
       274   137            337.46512     -406290.56      0             -406270.44      4014.8821      50.354447      405.75198    
       275   137.5          321.35968     -406289.59      0             -406270.44      3834.4669      46.675668      404.55909    
       276   138            301.1252      -406288.34      0             -406270.39      3601.323       53.968708      403.32513    
       277   138.5          282.37614     -406287.22      0             -406270.38      3386.9603      51.001629      402.11833    
       278   139            270.78791     -406286.5       0             -406270.36      3258.3671      53.727787      400.90316    
       279   139.5          270.85867     -406286.5       0             -406270.35      3269.4721      48.926765      399.72749    
       280   140            284.10143     -406287.31      0             -406270.38      3438.9308      50.886165      398.54679    
       281   140.5          307.72405     -406288.75      0             -406270.4       3733.2531      54.393105      397.35308    
       282   141            335.00751     -406290.41      0             -406270.43      4070.6696      53.451197      396.17314    
       283   141.5          357.5068      -406291.78      0             -406270.47      4347.8514      50.779527      395.01779    
       284   142            368.10645     -406292.41      0             -406270.46      4477.5993      47.261307      393.89479    
       285   142.5          363.45679     -406292.12      0             -406270.46      4419.0915      53.4397        392.73906    
       286   143            345.02651     -406291         0             -406270.43      4190.9021      50.250239      391.61085    
       287   143.5          318.87184     -406289.41      0             -406270.4       3867.8564      52.069242      390.47894    
       288   144            293.84953     -406287.91      0             -406270.39      3558.6213      51.361153      389.3591     
       289   144.5          278.42631     -406286.97      0             -406270.37      3366.4723      50.432875      388.25271    
       290   145            276.94573     -406286.88      0             -406270.36      3344.1904      46.580517      387.18046    
       291   145.5          287.47313     -406287.53      0             -406270.39      3468.7319      53.51766       386.07039    
       292   146            303.13477     -406288.5       0             -406270.43      3657.99        51.542731      384.97934    
       293   146.5          315.98599     -406289.28      0             -406270.44      3817.2319      49.35953       383.90939    
       294   147            320.57399     -406289.56      0             -406270.45      3881.2328      53.545774      382.82123    
       295   147.5          315.23083     -406289.22      0             -406270.43      3829.2896      53.705624      381.73943    
       296   148            301.39949     -406288.41      0             -406270.44      3677.2314      51.084136      380.68001    
       297   148.5          282.45165     -406287.25      0             -406270.41      3463.8643      51.098699      379.62749    
       298   149            262.85833     -406286.06      0             -406270.39      3241.8935      54.095073      378.5648     
       299   149.5          247.64824     -406285.12      0             -406270.36      3072.1609      52.88544       377.51575    
       300   150            241.72623     -406284.78      0             -406270.37      3015.6539      53.607751      376.46957    
       301   150.5          248.42923     -406285.16      0             -406270.35      3115.2289      53.199002      375.43246    
       302   151            267.70695     -406286.34      0             -406270.38      3371.7685      49.061139      374.42675    
       303   151.5          295.22473     -406288         0             -406270.4       3731.5714      53.265077      373.40261    
       304   152            323.32799     -406289.72      0             -406270.44      4097.7853      53.641634      372.38305    
       305   152.5          343.75556     -406290.97      0             -406270.48      4364.9853      50.717832      371.3866     
       306   153            350.73065     -406291.38      0             -406270.47      4459.1417      53.772649      370.37934    
       307   153.5          342.92758     -406290.91      0             -406270.46      4363.2589      53.55522       369.37968    
       308   154            324.0772      -406289.75      0             -406270.43      4125.269       45.68257       368.43542    
       309   154.5          302.09505     -406288.41      0             -406270.4       3846.7458      50.296829      367.46663    
       310   155            286.46741     -406287.44      0             -406270.36      3649.3698      53.554245      366.48567    
       311   155.5          284.3654      -406287.31      0             -406270.36      3625.4488      47.902794      365.54411    
       312   156            297.07316     -406288.09      0             -406270.38      3792.6393      54.429453      364.57085    
       313   156.5          319.31438     -406289.44      0             -406270.4       4085.3424      53.144372      363.61034    
       314   157            342.28697     -406290.84      0             -406270.44      4392.7179      50.092262      362.67293    
       315   157.5          358.04024     -406291.81      0             -406270.47      4613.5468      50.917726      361.73654    
       316   158            362.08945     -406292.03      0             -406270.44      4689.0893      47.289498      360.82828    
       317   158.5          353.83227     -406291.53      0             -406270.44      4608.7768      53.754193      359.88806    
       318   159            335.62325     -406290.44      0             -406270.43      4399.4205      54.19482       358.9514     
       319   159.5          311.71534     -406289         0             -406270.42      4112.969       52.358888      358.02999    
       320   160            287.6277      -406287.53      0             -406270.38      3819.6095      49.793623      357.12861    
       321   160.5          269.42862     -406286.44      0             -406270.38      3599.1316      52.311192      356.21864    
       322   161            262.38258     -406286         0             -406270.36      3522.8025      54.364511      355.30371    
       323   161.5          268.79531     -406286.38      0             -406270.35      3623.3651      54.268049      354.3948     
       324   162            286.32808     -406287.47      0             -406270.4       3870.7105      53.217376      353.49664    
       325   162.5          308.26712     -406288.81      0             -406270.43      4174.5346      46.010988      352.64623    
       326   163            325.92169     -406289.88      0             -406270.44      4417.011       57.732934      351.73763    
       327   163.5          332.00135     -406290.25      0             -406270.46      4492.491       54.459524      350.84936    
       328   164            323.1527      -406289.72      0             -406270.45      4361.9336      53.560071      349.97079    
       329   164.5          300.95084     -406288.38      0             -406270.43      4050.8203      43.328745      349.16004    
       330   165            271.51297     -406286.59      0             -406270.41      3643.9994      54.202093      348.28854    
       331   165.5          243.67014     -406284.91      0             -406270.38      3261.4099      53.6679        347.42479    
       332   166            225.79412     -406283.81      0             -406270.35      3015.2049      42.182488      346.63746    
       333   166.5          222.16302     -406283.59      0             -406270.35      2961.8806      54.347404      345.78036    
       334   167            230.95572     -406284.16      0             -406270.39      3076.7754      53.132727      344.93414    
       335   167.5          245.51578     -406285.06      0             -406270.43      3271.6011      43.002631      344.15461    
       336   168            258.04261     -406285.81      0             -406270.43      3443.1417      54.328563      343.31228    
       337   168.5          263.06989     -406286.12      0             -406270.44      3518.5922      53.041301      342.48103    
       338   169            258.8847      -406285.88      0             -406270.44      3473.9902      46.509973      341.6911     
       339   169.5          246.87379     -406285.16      0             -406270.44      3325.8969      54.475447      340.86248    
       340   170            230.26592     -406284.12      0             -406270.4       3115.4699      52.495665      340.04812    
       341   170.5          213.40037     -406283.12      0             -406270.4       2899.5835      44.969474      339.28197    
       342   171            201.31832     -406282.38      0             -406270.37      2745.923       53.087835      338.47386    
       343   171.5          199.08399     -406282.22      0             -406270.35      2723.7648      52.987507      337.67084    
       344   172            210.20067     -406282.88      0             -406270.34      2881.6584      46.988072      336.90499    
       345   172.5          234.61135     -406284.38      0             -406270.39      3218.9765      50.30978       336.1245     
       346   173            267.84099     -406286.38      0             -406270.41      3673.593       53.103056      335.33434    
       347   173.5          302.23949     -406288.47      0             -406270.45      4139.5038      47.904146      334.57603    
       348   174            329.83702     -406290.12      0             -406270.46      4507.2038      49.59152       333.81246    
       349   174.5          345.23523     -406291.03      0             -406270.45      4703.9954      53.552694      333.03328    
       350   175            347.10832     -406291.16      0             -406270.46      4714.134       48.703818      332.28314    
       351   175.5          338.38735     -406290.59      0             -406270.42      4580.1856      50.916678      331.52535    
       352   176            325.41819     -406289.81      0             -406270.41      4390.288       53.373205      330.7598     
       353   176.5          316.06437     -406289.22      0             -406270.38      4251.6872      51.828177      330.00585    
       354   177            316.58578     -406289.25      0             -406270.38      4248.7596      50.746882      329.26143    
       355   177.5          328.60271     -406289.97      0             -406270.38      4403.1591      54.16499       328.50484    
       356   178            348.2974      -406291.19      0             -406270.42      4664.1376      47.654571      327.78529    
       357   178.5          368.59379     -406292.41      0             -406270.43      4931.6365      53.562544      327.03954    
       358   179            382.77486     -406293.28      0             -406270.46      5117.1202      54.277283      326.29468    
       359   179.5          386.89501     -406293.5       0             -406270.43      5171.6047      46.761075      325.59215    
       360   180            380.09462     -406293.09      0             -406270.43      5083.272       50.519862      324.87289    
       361   180.5          363.8589      -406292.12      0             -406270.43      4870.8774      53.49253       324.14337    
       362   181            341.31637     -406290.75      0             -406270.4       4574.7737      47.061025      323.45051    
       363   181.5          317.02196     -406289.28      0             -406270.38      4254.5716      50.189239      322.74443    
       364   182            296.53608     -406288.06      0             -406270.38      3983.9295      53.843207      322.02491    
       365   182.5          285.32616     -406287.38      0             -406270.36      3835.8926      48.075839      321.33751    
       366   183            286.62347     -406287.44      0             -406270.35      3853.7889      50.446622      320.64138    
       367   183.5          299.53453     -406288.25      0             -406270.39      4025.3651      53.886319      319.93297    
       368   184            318.87163     -406289.44      0             -406270.43      4280.4716      48.404416      319.25475    
       369   184.5          337.08301     -406290.53      0             -406270.44      4517.4294      35.556213      318.67379    
       370   185            347.23768     -406291.16      0             -406270.46      4643.6285      36.995955      318.08213    
       371   185.5          345.49245     -406291.06      0             -406270.47      4608.6939      53.065605      317.39137    
       372   186            332.07697     -406290.25      0             -406270.45      4417.2377      51.371707      316.71196    
       373   186.5          311.21476     -406288.97      0             -406270.42      4127.068       53.53354       316.02634    
       374   187            290.09384     -406287.69      0             -406270.39      3834.647       48.496949      315.36828    
       375   187.5          276.47136     -406286.84      0             -406270.36      3642.7491      49.956071      314.70619    
       376   188            275.36804     -406286.78      0             -406270.36      3616.8719      54.179883      314.02832    
       377   188.5          286.59258     -406287.47      0             -406270.38      3753.5381      48.694126      313.37945    
       378   189            305.01416     -406288.59      0             -406270.41      3985.0343      50.7793        312.7236     
       379   189.5          323.4816      -406289.72      0             -406270.43      4218.2268      54.077427      312.05645    
       380   190            336.25653     -406290.5       0             -406270.45      4379.0793      48.541602      311.41836    
       381   190.5          340.71928     -406290.75      0             -406270.44      4434.1318      50.160267      310.77545    
       382   191            337.12462     -406290.53      0             -406270.43      4386.7718      53.275083      310.12172    
       383   191.5          327.62606     -406289.94      0             -406270.41      4264.4406      49.125582      309.49041    
       384   192            315.5729      -406289.22      0             -406270.41      4109.7494      50.88675       308.85381    
       385   192.5          305.21369     -406288.59      0             -406270.4       3976.9585      54.119975      308.20635    
       386   193            301.06867     -406288.31      0             -406270.36      3924.0431      52.302172      307.56982    
       387   193.5          306.5439      -406288.66      0             -406270.38      3994.5733      51.423767      306.94037    
       388   194            322.0448      -406289.59      0             -406270.39      4192.9109      54.027674      306.30293    
       389   194.5          343.86464     -406290.91      0             -406270.41      4464.0463      48.135998      305.69553    
       390   195            365.19302     -406292.22      0             -406270.45      4714.9082      52.186418      305.07208    
       391   195.5          378.8746      -406293.03      0             -406270.44      4860.3877      54.029907      304.444      
       392   196            380.16791     -406293.12      0             -406270.46      4842.3363      48.574555      303.84347    
       393   196.5          368.24821     -406292.41      0             -406270.45      4654.6559      50.316584      303.23754    
       394   197            346.35295     -406291.06      0             -406270.41      4343.0811      54.092334      302.61837    
       395   197.5          320.8971      -406289.53      0             -406270.4       3991.7342      51.259802      302.01415    
       396   198            299.57743     -406288.22      0             -406270.36      3697.7906      51.161104      301.41331    
       397   198.5          288.51744     -406287.56      0             -406270.36      3535.9759      54.210547      300.80267    
       398   199            289.43866     -406287.62      0             -406270.37      3525.3933      52.994847      300.19987    
       399   199.5          298.9298      -406288.22      0             -406270.4       3623.0142      49.323508      299.61622    
       400   200            310.67322     -406288.94      0             -406270.42      3752.1943      53.765337      299.01611    
       401   200.5          318.81437     -406289.44      0             -406270.43      3843.1141      51.69726       298.42744    
       402   201            319.95449     -406289.5       0             -406270.43      3855.5211      49.347656      297.85213    
       403   201.5          313.25769     -406289.09      0             -406270.42      3779.0416      51.026024      297.27198    
       404   202            299.70265     -406288.28      0             -406270.41      3624.0077      52.900629      296.6867     
       405   202.5          281.5577      -406287.19      0             -406270.4       3415.6305      48.210801      296.12509    
       406   203            262.31233     -406286.03      0             -406270.39      3193.9938      49.995723      295.55775    
       407   203.5          246.58443     -406285.06      0             -406270.36      3013.7407      52.24287       294.9834     
       408   204            239.03455     -406284.62      0             -406270.37      2931.27        48.189645      294.42989    
       409   204.5          242.28096     -406284.81      0             -406270.37      2978.8793      49.393268      293.8733     
       410   205            255.16249     -406285.59      0             -406270.38      3142.5459      52.878099      293.3044     
       411   205.5          272.75034     -406286.69      0             -406270.43      3361.4498      48.294119      292.75822    
       412   206            288.42335     -406287.62      0             -406270.43      3553.7281      50.575383      292.20418    
       413   206.5          296.6567      -406288.12      0             -406270.44      3651.5062      53.638377      291.6402     
       414   207            294.83044     -406288.03      0             -406270.45      3623.5436      48.671611      291.09992    
       415   207.5          283.79974     -406287.34      0             -406270.42      3481.9777      50.192861      290.55526    
       416   208            267.6174      -406286.38      0             -406270.42      3278.2102      53.546807      289.99938    
       417   208.5          252.47208     -406285.44      0             -406270.39      3089.2696      47.821016      289.47065    
       418   209            244.76538     -406284.97      0             -406270.38      2994.1992      50.482813      288.93227    
       419   209.5          248.48198     -406285.19      0             -406270.37      3042.477       53.657588      288.38354    
       420   210            263.24861     -406286.09      0             -406270.4       3230.9825      51.170159      287.84721    
       421   210.5          284.72808     -406287.38      0             -406270.4       3508.7586      50.394445      287.31662    
       422   211            307.097       -406288.72      0             -406270.41      3806.3646      53.683579      286.77526    
       423   211.5          325.56244     -406289.84      0             -406270.43      4065.6057      47.142662      286.26433    
       424   212            337.54254     -406290.56      0             -406270.44      4253.5785      53.201292      285.72965    
       425   212.5          342.53664     -406290.84      0             -406270.42      4361.4403      53.917006      285.1947     
       426   213            341.41869     -406290.78      0             -406270.43      4396.5121      48.208219      284.68576    
       427   213.5          336.24269     -406290.47      0             -406270.42      4381.0329      50.404674      284.16943    
       428   214            330.36242     -406290.09      0             -406270.4       4355.1954      54.157847      283.64073    
       429   214.5          327.93843     -406289.94      0             -406270.39      4372.0509      47.932706      283.13996    
       430   215            332.50276     -406290.19      0             -406270.36      4476.7436      50.334713      282.63083    
       431   215.5          345.03374     -406290.97      0             -406270.4       4667.2895      53.912279      282.11001    
       432   216            362.83544     -406292.03      0             -406270.4       4924.8073      54.3076        281.59009    
       433   216.5          380.33067     -406293.09      0             -406270.42      5173.4177      50.501135      281.08711    
       434   217            391.30389     -406293.78      0             -406270.45      5328.3476      50.787341      280.5852     
       435   217.5          391.24992     -406293.78      0             -406270.46      5328.6258      54.03925       280.07306    
       436   218            378.65867     -406293.03      0             -406270.46      5154.9331      52.034833      279.57065    
       437   218.5          355.36291     -406291.62      0             -406270.44      4834.0635      50.326716      279.07726    
       438   219            326.39021     -406289.88      0             -406270.42      4436.2389      53.738265      278.5729     
       439   219.5          298.84657     -406288.19      0             -406270.37      4059.3278      53.225072      278.07261    
       440   220            279.29294     -406287.03      0             -406270.38      3793.0734      49.81488       277.58784    
       441   220.5          270.76001     -406286.53      0             -406270.39      3678.9618      53.278149      277.09169    
       442   221            271.5098      -406286.59      0             -406270.41      3693.8431      53.416974      276.5972     
       443   221.5          276.49762     -406286.91      0             -406270.42      3769.6702      49.75111       276.11904    
       444   222            280.37818     -406287.16      0             -406270.44      3833.7756      53.9704        275.62682    
       445   222.5          279.7188      -406287.09      0             -406270.42      3838.5721      53.801782      275.13732    
       446   223            273.33553     -406286.72      0             -406270.42      3766.2601      49.304972      274.66725    
       447   223.5          261.78051     -406286.03      0             -406270.42      3622.3514      47.424319      274.20738    
       448   224            247.03869     -406285.12      0             -406270.4       3432.2515      50.102068      273.73802    
       449   224.5          232.59207     -406284.25      0             -406270.38      3242.8873      52.794779      273.26034    
       450   225            223.04217     -406283.66      0             -406270.36      3117.8786      53.452348      272.78235    
       451   225.5          222.70753     -406283.66      0             -406270.38      3117.711       51.907408      272.31201    
       452   226            233.35876     -406284.28      0             -406270.37      3267.2133      41.010621      271.89517    
       453   226.5          252.55071     -406285.47      0             -406270.41      3531.5686      54.08624       271.42089    
       454   227            274.24129     -406286.78      0             -406270.43      3825.3905      53.265148      270.95147    
       455   227.5          291.42898     -406287.81      0             -406270.44      4050.8191      53.300398      270.48391    
       456   228            298.93879     -406288.28      0             -406270.46      4137.2429      49.95404       270.03085    
       457   228.5          294.96031     -406288.03      0             -406270.45      4062.3742      51.925534      269.57212    
       458   229            281.22161     -406287.19      0             -406270.42      3853.3664      53.13642       269.11096    
       459   229.5          262.48391     -406286.06      0             -406270.41      3578.2771      53.086598      268.6519     
       460   230            245.41927     -406285         0             -406270.37      3329.4685      53.779346      268.19236    
       461   230.5          236.34332     -406284.47      0             -406270.38      3192.4284      50.306647      267.74737    
       462   231            238.523       -406284.59      0             -406270.37      3210.1121      53.73644       267.29177    
       463   231.5          250.80078     -406285.34      0             -406270.39      3365.8183      47.137187      266.86357    
       464   232            268.57588     -406286.44      0             -406270.43      3597.3975      53.858983      266.41125    
       465   232.5          286.37245     -406287.5       0             -406270.43      3831.7159      52.883323      265.96414    
       466   233            300.07901     -406288.31      0             -406270.42      4013.9891      46.72137       265.54313    
       467   233.5          307.61295     -406288.78      0             -406270.44      4116.0881      53.779566      265.09656    
       468   234            308.50482     -406288.81      0             -406270.42      4130.8343      53.797382      264.65176    
       469   234.5          303.61563     -406288.53      0             -406270.43      4068.4307      53.575951      264.20952    
       470   235            295.38376     -406288.03      0             -406270.42      3960.1721      53.714742      263.76862    
       471   235.5          287.967       -406287.56      0             -406270.4       3860.6889      48.074018      263.35052    
       472   236            286.25359     -406287.44      0             -406270.37      3834.7292      53.088974      262.91525    
       473   236.5          293.54096     -406287.88      0             -406270.38      3925.7314      48.785519      262.49765    
       474   237            309.38949     -406288.84      0             -406270.4       4121.3897      54.004221      262.0628     
       475   237.5          329.39804     -406290.06      0             -406270.43      4355.5519      53.380761      261.63177    
       476   238            347.28042     -406291.16      0             -406270.45      4554.9056      49.13938       261.21784    
       477   238.5          357.67743     -406291.78      0             -406270.46      4651.413       54.435692      260.78678    
       478   239            357.90876     -406291.78      0             -406270.44      4614.3944      58.626651      260.34502    
       479   239.5          348.19454     -406291.19      0             -406270.43      4451.5128      48.243609      259.9397     
       480   240            331.42827     -406290.19      0             -406270.43      4203.8694      55.01644       259.51195    
       481   240.5          312.66574     -406289.03      0             -406270.39      3937.9685      53.510955      259.09069    
       482   241            297.84969     -406288.12      0             -406270.37      3729.0034      41.885069      258.71973    
       483   241.5          291.6307      -406287.75      0             -406270.36      3634.0996      39.383782      258.36439    
       484   242            295.31867     -406288         0             -406270.39      3668.2032      48.917275      257.96425    
       485   242.5          306.52068     -406288.69      0             -406270.41      3800.9023      51.358399      257.55662    
       486   243            320.77776     -406289.53      0             -406270.41      3977.0428      54.955122      257.13875    
       487   243.5          333.6734      -406290.31      0             -406270.42      4142.2345      55.181084      256.72183    
       488   244            342.00639     -406290.81      0             -406270.42      4256.555       55.093323      256.30682    
       489   244.5          343.94021     -406290.94      0             -406270.43      4295.9695      50.695065      255.90795    
       490   245            338.95574     -406290.66      0             -406270.45      4251.8051      55.349447      255.49537    
       491   245.5          328.32906     -406290         0             -406270.43      4137.3079      54.318727      255.08754    
       492   246            315.7419      -406289.22      0             -406270.4       3996.279       49.204845      254.69883    
       493   246.5          307.06846     -406288.69      0             -406270.38      3901.438       49.901502      254.30901    
       494   247            308.12394     -406288.75      0             -406270.38      3926.2408      51.440028      253.91522    
       495   247.5          321.25526     -406289.53      0             -406270.38      4100.7386      55.390302      253.51034    
       496   248            343.39354     -406290.88      0             -406270.4       4385.6531      54.525725      253.10961    
       497   248.5          367.22477     -406292.34      0             -406270.45      4687.1953      46.382641      252.73959    
       498   249            384.75364     -406293.41      0             -406270.47      4903.4273      55.100459      252.34013    
       499   249.5          390.46112     -406293.75      0             -406270.47      4965.2632      54.590913      251.94373    
       500   250            382.54978     -406293.25      0             -406270.44      4852.175       51.018914      251.56039    
       501   250.5          363.02402     -406292.06      0             -406270.42      4592.3078      54.536282      251.16714    
       502   251            337.00698     -406290.5       0             -406270.41      4252.7172      54.519197      250.77544    
       503   251.5          311.31975     -406288.94      0             -406270.38      3920.722       48.881068      250.40414    
       504   252            292.13393     -406287.78      0             -406270.37      3674.3122      54.367014      250.01582    
       505   252.5          282.52149     -406287.22      0             -406270.38      3551.9867      54.074485      249.62984    
       506   253            281.49198     -406287.19      0             -406270.41      3541.3571      53.391269      249.24742    
       507   253.5          285.20055     -406287.41      0             -406270.4       3594.471       54.535437      248.86296    
       508   254            289.2365      -406287.66      0             -406270.41      3656.1214      54.686487      248.47948    
       509   254.5          290.21429     -406287.72      0             -406270.42      3683.2833      50.372017      248.11126    
       510   255            286.18265     -406287.5       0             -406270.44      3649.9938      54.630751      247.73079    
       511   255.5          276.42291     -406286.91      0             -406270.43      3544.9458      54.230314      247.35291    
       512   256            261.57455     -406286         0             -406270.41      3373.6383      51.143293      246.9862     
       513   256.5          244.39646     -406284.97      0             -406270.4       3169.1189      52.187292      246.61742    
       514   257            230.14369     -406284.09      0             -406270.37      2998.0266      54.92972       246.24165    
       515   257.5          225.30592     -406283.78      0             -406270.35      2944.7497      50.757407      245.88031    
       516   258            234.39096     -406284.34      0             -406270.37      3068.654       54.610503      245.5082     
       517   258.5          256.76886     -406285.69      0             -406270.38      3361.1966      51.649112      245.14657    
       518   259            286.29292     -406287.5       0             -406270.43      3740.4721      48.602109      244.79676    
       519   259.5          314.2803      -406289.19      0             -406270.45      4091.6645      50.629858      244.44111    
       520   260            333.42777     -406290.34      0             -406270.47      4320.044       54.751514      244.07394    
       521   260.5          340.03784     -406290.72      0             -406270.45      4380.45        53.781171      243.71094    
       522   261            334.55629     -406290.38      0             -406270.43      4282.9943      41.185363      243.39805    
       523   261.5          321.11942     -406289.56      0             -406270.42      4085.0752      54.713512      243.03487    
       524   262            306.23491     -406288.66      0             -406270.4       3872.5398      53.637479      242.67613    
       525   262.5          296.48374     -406288.06      0             -406270.39      3729.7293      51.568928      242.32506    
       526   263            295.86725     -406288.03      0             -406270.39      3706.7433      54.281081      241.96702    
       527   263.5          304.29314     -406288.53      0             -406270.39      3802.0713      47.96697       241.63085    
       528   264            318.32129     -406289.38      0             -406270.4       3973.1165      54.522256      241.27464    
       529   264.5          333.47535     -406290.31      0             -406270.43      4165.0278      50.99334       240.93043    
       530   265            346.21072     -406291.06      0             -406270.42      4334.3929      48.905627      240.59452    
       531   265.5          354.36219     -406291.56      0             -406270.44      4453.9977      53.811449      240.2441     
       532   266            356.64494     -406291.69      0             -406270.43      4506.2161      51.358502      239.90239    
       533   266.5          352.43402     -406291.44      0             -406270.43      4480.2866      54.917934      239.5513     
       534   267            342.46268     -406290.84      0             -406270.43      4381.7146      54.856745      239.20163    
       535   267.5          329.94805     -406290.06      0             -406270.39      4247.8696      48.21807       238.87415    
       536   268            320.61975     -406289.5       0             -406270.39      4149.941       49.33136       238.54391    
       537   268.5          320.41023     -406289.47      0             -406270.37      4163.8122      54.369284      238.19922    
       538   269            331.70372     -406290.16      0             -406270.38      4320.4216      50.97471       237.8659     
       539   269.5          351.28893     -406291.34      0             -406270.4       4577.5683      54.360515      237.52363    
       540   270            371.85362     -406292.62      0             -406270.46      4839.2934      49.003372      237.19918    
       541   270.5          385.74988     -406293.47      0             -406270.47      5006.3288      51.581113      236.86743    
       542   271            388.19896     -406293.59      0             -406270.45      5018.8471      54.873451      236.52728    
       543   271.5          378.36025     -406293         0             -406270.44      4869.8903      55.004923      236.18795    
       544   272            359.11042     -406291.84      0             -406270.43      4600.8809      54.382001      235.85151    
       545   272.5          336.14402     -406290.44      0             -406270.4       4288.2336      50.755323      235.52697    
       546   273            316.17507     -406289.22      0             -406270.37      4019.3506      54.337487      235.19296    
       547   273.5          304.49064     -406288.53      0             -406270.38      3861.7525      54.690414      234.85914    
       548   274            302.89982     -406288.44      0             -406270.38      3838.3016      53.006331      234.53118    
       549   274.5          309.47606     -406288.84      0             -406270.39      3925.0338      54.736224      234.19952    
       550   275            320.21321     -406289.5       0             -406270.41      4072.1986      54.604509      233.86935    
       551   275.5          331.11543     -406290.16      0             -406270.42      4229.95        51.055246      233.5506     
       552   276            339.26079     -406290.66      0             -406270.43      4361.0111      54.865048      233.22197    
       553   276.5          342.63265     -406290.88      0             -406270.45      4438.0387      54.953452      232.89423    
       554   277            339.75957     -406290.69      0             -406270.43      4438.9155      54.211202      232.5696     
       555   277.5          330.14779     -406290.12      0             -406270.44      4352.7319      52.634183      232.2505     
       556   278            315.44297     -406289.22      0             -406270.41      4196.2802      46.996889      231.9507     
       557   278.5          300.44973     -406288.31      0             -406270.4       4029.6776      54.472168      231.62861    
       558   279            292.22949     -406287.78      0             -406270.36      3946.3176      50.486987      231.31914    
       559   279.5          296.66201     -406288.06      0             -406270.38      4025.3517      55.167885      230.99736    
       560   280            314.57542     -406289.12      0             -406270.37      4274.8187      54.631524      230.67807    
       561   280.5          340.67626     -406290.72      0             -406270.41      4628.7278      49.293882      230.37553    
       562   281            366.26028     -406292.28      0             -406270.45      4968.4663      53.480672      230.06146    
       563   281.5          383.39159     -406293.31      0             -406270.46      5187.259       54.587164      229.74546    
       564   282            387.66401     -406293.56      0             -406270.45      5228.2096      51.164797      229.44014    
       565   282.5          379.10896     -406293.03      0             -406270.43      5095.6126      55.072991      229.12495    
       566   283            361.85533     -406292         0             -406270.43      4848.6141      54.832083      228.81144    
       567   283.5          342.67763     -406290.81      0             -406270.38      4580.33        48.450626      228.51775    
       568   284            328.41744     -406289.94      0             -406270.36      4383.0713      54.740434      228.20651    
       569   284.5          323.18798     -406289.66      0             -406270.39      4311.8595      54.824267      227.89609    
       570   285            326.86724     -406289.88      0             -406270.39      4365.3495      51.690948      227.59528    
       571   285.5          335.89271     -406290.44      0             -406270.41      4496.672       54.43435       227.2879     
       572   286            345.56705     -406291.03      0             -406270.43      4643.5474      54.191199      226.98216    
       573   286.5          351.97809     -406291.41      0             -406270.42      4753.1074      52.798503      226.68119    
       574   287            352.46736     -406291.44      0             -406270.42      4787.7533      54.734813      226.37604    
       575   287.5          345.25737     -406291.03      0             -406270.45      4720.1697      54.955907      226.07132    
       576   288            329.38494     -406290.09      0             -406270.46      4532.8993      51.954389      225.77566    
       577   288.5          305.51793     -406288.66      0             -406270.44      4230.553       49.643697      225.48784    
       578   289            277.24918     -406286.94      0             -406270.41      3859.3077      50.477441      225.19839    
       579   289.5          251.47292     -406285.38      0             -406270.38      3513.7453      53.739229      224.90069    
       580   290            236.19373     -406284.44      0             -406270.36      3306.4654      50.348046      224.61351    
       581   290.5          236.21017     -406284.44      0             -406270.36      3305.8326      54.293583      224.31627    
       582   291            249.92576     -406285.28      0             -406270.38      3489.3157      45.475841      224.0471     
       583   291.5          270.04284     -406286.53      0             -406270.43      3753.6538      53.352463      223.75418    
       584   292            287.5426      -406287.59      0             -406270.45      3973.0187      54.809152      223.45843    
       585   292.5          295.87299     -406288.09      0             -406270.45      4059.0779      54.91572       223.16336    
       586   293            293.00516     -406287.91      0             -406270.44      3988.6279      51.174291      222.87927    
       587   293.5          281.48518     -406287.22      0             -406270.44      3801.5675      53.723166      222.5891     
       588   294            267.26066     -406286.31      0             -406270.38      3581.9924      50.370345      222.30916    
       589   294.5          257.54141     -406285.72      0             -406270.37      3427.7308      51.311391      222.02738    
       590   295            257.84981     -406285.75      0             -406270.38      3411.256       55.324346      221.73592    
       591   295.5          269.79315     -406286.47      0             -406270.38      3552.0499      54.675708      221.44698    
       592   296            290.96527     -406287.75      0             -406270.4       3817.3183      45.421318      221.1867     
       593   296.5          316.76225     -406289.28      0             -406270.4       4146.7103      49.253637      220.9145     
       594   297            342.5302      -406290.84      0             -406270.42      4480.0367      55.093578      220.62718    
[...]
      4862   2431           220.31332     -406283.53      0             -406270.4       2475.2432      53.963425      3.0523946    
      4863   2431.5         224.40802     -406283.78      0             -406270.4       2520.136       48.357515      3.0302352    
      4864   2432           235.84624     -406284.44      0             -406270.38      2647.6246      54.110865      3.008015     
      4865   2432.5         255.76555     -406285.66      0             -406270.41      2870.3258      52.120325      2.9858159    
      4866   2433           283.45553     -406287.31      0             -406270.41      3180.1341      54.222154      2.9635975    
      4867   2433.5         316.00283     -406289.25      0             -406270.41      3544.2837      50.622418      2.9414166    
      4868   2434           348.65572     -406291.22      0             -406270.43      3909.4892      54.460939      2.9191989    
      4869   2434.5         375.97228     -406292.88      0             -406270.46      4214.8413      50.087739      2.8970259    
      4870   2435           393.32324     -406293.91      0             -406270.46      4408.6192      49.126897      2.8748642    
      4871   2435.5         398.43956     -406294.22      0             -406270.47      4465.5525      54.016339      2.8526545    
      4872   2436           392.49601     -406293.84      0             -406270.44      4398.8895      53.608363      2.83045      
      4873   2436.5         380.0251      -406293.09      0             -406270.44      4259.4151      49.399753      2.8082884    
      4874   2437           367.19979     -406292.31      0             -406270.42      4116.2496      50.625055      2.7861149    
      4875   2437.5         358.92819     -406291.81      0             -406270.41      4024.3525      53.441847      2.7639157    
      4876   2438           356.4528      -406291.66      0             -406270.41      3997.6361      45.993906      2.7417949    
      4877   2438.5         357.08786     -406291.72      0             -406270.43      4005.9912      54.091497      2.7195923    
      4878   2439           356.25048     -406291.69      0             -406270.45      3998.0063      53.981716      2.6973921    
      4879   2439.5         350.19542     -406291.34      0             -406270.47      3931.6047      45.408969      2.6752802    
      4880   2440           337.45422     -406290.56      0             -406270.44      3790.1909      54.272491      2.6530798    
      4881   2440.5         318.8017      -406289.44      0             -406270.43      3582.3023      54.199402      2.6308816    
      4882   2441           296.49614     -406288.09      0             -406270.42      3333.1224      47.491939      2.6087479    
      4883   2441.5         273.47537     -406286.72      0             -406270.42      3075.495       50.635224      2.5865834    
      4884   2442           252.90117     -406285.47      0             -406270.39      2844.8373      50.814635      2.5644182    
      4885   2442.5         237.85073     -406284.56      0             -406270.38      2675.6706      48.109149      2.54228      
      4886   2443           230.84808     -406284.16      0             -406270.39      2596.2998      53.969145      2.5200898    
      4887   2443.5         233.14902     -406284.28      0             -406270.38      2620.6898      48.955217      2.4979449    
      4888   2444           243.98525     -406284.94      0             -406270.39      2739.9289      48.098806      2.475809     
      4889   2444.5         260.26387     -406285.94      0             -406270.42      2918.9557      49.897752      2.4536567    
      4890   2445           277.08852     -406286.97      0             -406270.45      3102.6642      53.633659      2.4314739    
      4891   2445.5         289.06749     -406287.69      0             -406270.45      3230.847       46.265825      2.4093587    
      4892   2446           292.14103     -406287.88      0             -406270.46      3258.7412      50.969699      2.3871996    
      4893   2446.5         285.3635      -406287.47      0             -406270.46      3176.7075      54.401693      2.3650145    
      4894   2447           271.80494     -406286.62      0             -406270.42      3019.7895      48.008947      2.342884     
      4895   2447.5         257.67296     -406285.78      0             -406270.42      2857.4459      54.301537      2.3207022    
      4896   2448           249.45932     -406285.25      0             -406270.38      2761.6569      53.782053      2.2985258    
      4897   2448.5         250.62437     -406285.34      0             -406270.4       2770.38        49.937084      2.2763809    
      4898   2449           260.05509     -406285.91      0             -406270.4       2870.9217      54.269763      2.2542036    
      4899   2449.5         273.25853     -406286.72      0             -406270.43      3013.4769      53.373012      2.2320342    
      4900   2450           285.13571     -406287.44      0             -406270.44      3141.8283      48.498238      2.2099046    
      4901   2450.5         292.28878     -406287.88      0             -406270.45      3218.6507      53.484462      2.1877369    
      4902   2451           293.75475     -406287.97      0             -406270.46      3233.4081      54.382282      2.1655644    
      4903   2451.5         290.57732     -406287.75      0             -406270.43      3197.5367      54.220908      2.1433945    
      4904   2452           285.03821     -406287.41      0             -406270.41      3135.9749      49.180699      2.1212631    
      4905   2452.5         280.04453     -406287.09      0             -406270.4       3080.4798      49.074097      2.0991333    
      4906   2453           278.66892     -406287         0             -406270.39      3064.6219      54.306302      2.0769666    
      4907   2453.5         283.52202     -406287.31      0             -406270.41      3116.9133      51.496294      2.0548205    
      4908   2454           295.9351      -406288.03      0             -406270.39      3251.8435      54.05233       2.0326583    
      4909   2454.5         315.15949     -406289.19      0             -406270.4       3461.1442      54.456203      2.010495     
      4910   2455           338.05593     -406290.59      0             -406270.44      3710.5111      53.312546      1.9883405    
      4911   2455.5         359.65157     -406291.91      0             -406270.47      3945.8517      50.104435      1.9662091    
      4912   2456           374.49411     -406292.78      0             -406270.46      4108.1227      54.23232       1.9440515    
      4913   2456.5         378.42555     -406293.03      0             -406270.47      4152.5165      54.205105      1.9218955    
      4914   2457           370.2063      -406292.53      0             -406270.46      4065.8883      45.142522      1.8998058    
      4915   2457.5         352.329       -406291.44      0             -406270.43      3875.4818      49.614828      1.8776815    
      4916   2458           330.41861     -406290.12      0             -406270.43      3642.5614      53.987372      1.8555302    
      4917   2458.5         310.95516     -406288.94      0             -406270.4       3437.9277      47.610437      1.8334222    
      4918   2459           298.23163     -406288.19      0             -406270.41      3308.8197      49.586115      1.8113008    
      4919   2459.5         292.48859     -406287.84      0             -406270.41      3258.1316      52.227217      1.7891633    
      4920   2460           290.46311     -406287.75      0             -406270.43      3249.7895      53.462933      1.7670198    
      4921   2460.5         287.79211     -406287.59      0             -406270.44      3234.8075      49.211475      1.7449037    
      4922   2461           281.38472     -406287.22      0             -406270.44      3177.6641      54.149979      1.7227589    
      4923   2461.5         270.47067     -406286.56      0             -406270.44      3068.5139      53.855833      1.7006173    
      4924   2462           256.41954     -406285.72      0             -406270.43      2921.823       50.531087      1.6784959    
      4925   2462.5         241.89778     -406284.84      0             -406270.42      2767.3347      53.813314      1.6563571    
      4926   2463           230.03907     -406284.12      0             -406270.41      2640.8178      53.773161      1.6342199    
      4927   2463.5         223.81754     -406283.75      0             -406270.41      2576.8024      50.41215       1.6121026    
      4928   2464           225.49444     -406283.84      0             -406270.4       2601.9476      54.188509      1.5899659    
      4929   2464.5         236.0704      -406284.47      0             -406270.4       2728.419       54.429189      1.5678296    
      4930   2465           254.75862     -406285.59      0             -406270.41      2947.5877      50.552698      1.5457148    
      4931   2465.5         278.75089     -406287.03      0             -406270.41      3227.2865      53.507059      1.5235857    
      4932   2466           303.55453     -406288.53      0             -406270.43      3515.8232      53.962161      1.5014558    
      4933   2466.5         323.9461      -406289.78      0             -406270.47      3753.1551      53.100101      1.4793315    
      4934   2467           335.40398     -406290.47      0             -406270.47      3887.4634      48.999484      1.4572296    
      4935   2467.5         335.60152     -406290.47      0             -406270.46      3892.2542      53.943767      1.4351037    
      4936   2468           325.53454     -406289.84      0             -406270.44      3779.2293      45.969663      1.413021     
      4937   2468.5         309.55235     -406288.88      0             -406270.42      3598.6623      50.540452      1.3909133    
      4938   2469           293.65724     -406287.91      0             -406270.4       3419.9504      54.169188      1.3687898    
      4939   2469.5         282.70422     -406287.25      0             -406270.4       3299.3914      54.209436      1.3466678    
      4940   2470           278.17306     -406287         0             -406270.42      3254.2646      50.353126      1.3245643    
      4941   2470.5         277.94621     -406287         0             -406270.43      3259.8807      53.772281      1.3024467    
      4942   2471           278.13202     -406287.03      0             -406270.45      3270.4729      53.764201      1.2803305    
      4943   2471.5         275.42189     -406286.88      0             -406270.46      3246.6911      53.405019      1.2582172    
      4944   2472           268.53998     -406286.44      0             -406270.43      3172.8671      53.72243       1.2361041    
      4945   2472.5         258.30506     -406285.81      0             -406270.41      3058.1131      53.960661      1.2139914    
      4946   2473           246.82015     -406285.12      0             -406270.41      2927.0093      53.616371      1.1918815    
      4947   2473.5         236.74194     -406284.53      0             -406270.42      2811.0141      50.267461      1.1697863    
      4948   2474           230.84012     -406284.16      0             -406270.39      2743.1575      54.195475      1.1476768    
      4949   2474.5         231.68184     -406284.22      0             -406270.41      2754.1426      57.240791      1.1255587    
      4950   2475           241.12349     -406284.75      0             -406270.38      2866.1575      51.048042      1.1034638    
      4951   2475.5         259.55498     -406285.88      0             -406270.4       3083.8159      53.239289      1.081362     
      4952   2476           285.23684     -406287.41      0             -406270.4       3386.343       48.572739      1.0592791    
      4953   2476.5         314.21399     -406289.16      0             -406270.42      3726.762       53.118248      1.03718      
      4954   2477           341.08823     -406290.78      0             -406270.45      4041.2959      52.589209      1.015084     
      4955   2477.5         360.50148     -406291.97      0             -406270.48      4267.0278      51.557134      0.99299267   
      4956   2478           368.92935     -406292.47      0             -406270.47      4362.9675      53.524188      0.97089613   
      4957   2478.5         366.09213     -406292.28      0             -406270.46      4326.41        49.790682      0.94881312   
      4958   2479           355.15415     -406291.62      0             -406270.45      4195.0188      48.199833      0.92673653   
      4959   2479.5         341.37209     -406290.78      0             -406270.43      4030.8002      53.720202      0.90464285   
      4960   2480           329.51869     -406290.06      0             -406270.42      3889.8108      49.97786       0.88256181   
      4961   2480.5         321.63971     -406289.59      0             -406270.42      3795.8465      46.730638      0.86049254   
      4962   2481           316.56539     -406289.31      0             -406270.44      3734.7914      53.341313      0.83840322   
      4963   2481.5         311.33925     -406289         0             -406270.44      3671.5534      51.023847      0.81632161   
      4964   2482           303.28811     -406288.53      0             -406270.45      3574.541       46.972178      0.79425325   
      4965   2482.5         291.24768     -406287.81      0             -406270.45      3430.1254      53.524125      0.77216684   
      4966   2483           275.77292     -406286.88      0             -406270.43      3245.0491      49.980667      0.75009087   
      4967   2483.5         258.66902     -406285.84      0             -406270.42      3040.7754      47.255634      0.72802339   
      4968   2484           242.38742     -406284.88      0             -406270.42      2846.2618      54.089364      0.70593906   
      4969   2484.5         229.57095     -406284.09      0             -406270.41      2692.5393      53.188462      0.68385813   
      4970   2485           222.67558     -406283.66      0             -406270.38      2608.2456      41.841454      0.66180929   
      4971   2485.5         223.48601     -406283.72      0             -406270.4       2613.9587      53.828487      0.63972867   
      4972   2486           232.5086      -406284.25      0             -406270.39      2715.1469      53.711955      0.61764967   
      4973   2486.5         248.39929     -406285.22      0             -406270.41      2895.6125      40.972349      0.5956035    
      4974   2487           267.77799     -406286.41      0             -406270.44      3115.5477      53.519304      0.57352648   
      4975   2487.5         285.78491     -406287.5       0             -406270.46      3318.2769      52.611249      0.55145243   
      4976   2488           297.39932     -406288.19      0             -406270.46      3445.7679      41.488296      0.5294042    
      4977   2488.5         299.14761     -406288.31      0             -406270.48      3458.4147      53.863006      0.50732955   
      4978   2489           290.65082     -406287.78      0             -406270.45      3352.672       55.354968      0.4852541    
      4979   2489.5         275.15796     -406286.84      0             -406270.44      3166.7699      49.207949      0.46318978   
      4980   2490           258.45284     -406285.81      0             -406270.4       2967.6876      52.677494      0.44112078   
      4981   2490.5         246.30358     -406285.09      0             -406270.41      2821.6156      55.231387      0.41904967   
      4982   2491           241.80751     -406284.81      0             -406270.4       2763.6222      55.066237      0.39698035   
      4983   2491.5         244.31263     -406284.97      0             -406270.4       2785.7258      48.911863      0.3749204    
      4984   2492           250.51845     -406285.38      0             -406270.44      2849.9373      53.527935      0.35285543   
      4985   2492.5         256.76858     -406285.75      0             -406270.44      2914.6326      49.945332      0.33079585   
      4986   2493           260.88451     -406286         0             -406270.45      2955.3282      51.99282       0.30873488   
      4987   2493.5         262.70017     -406286.09      0             -406270.43      2970.4731      53.967441      0.2866732    
      4988   2494           263.59799     -406286.12      0             -406270.41      2975.9344      51.792733      0.26461482   
      4989   2494.5         265.74378     -406286.25      0             -406270.41      2996.2137      52.483862      0.24255697   
      4990   2495           271.45542     -406286.59      0             -406270.41      3057.3164      51.264561      0.22050124   
      4991   2495.5         282.75514     -406287.25      0             -406270.39      3181.7628      53.496596      0.19844506   
      4992   2496           300.93505     -406288.34      0             -406270.4       3383.7654      50.602734      0.17639194   
      4993   2496.5         326.03879     -406289.84      0             -406270.41      3663.4537      54.912382      0.15433757   
      4994   2497           356.34173     -406291.66      0             -406270.41      4001.0905      53.823329      0.13228518   
      4995   2497.5         388.18545     -406293.59      0             -406270.45      4355.2971      54.528455      0.11023394   
      4996   2498           416.53511     -406295.28      0             -406270.45      4669.4277      55.054159      0.08818404   
      4997   2498.5         436.2557      -406296.47      0             -406270.46      4885.9854      51.328766      0.066136491  
      4998   2499           443.8261      -406296.94      0             -406270.48      4965.8545      55.99724       0.044089318  
      4999   2499.5         438.83283     -406296.62      0             -406270.46      4904.9158      49.335337      0.022044304  
      5000   2500           424.45808     -406295.75      0             -406270.45      4739.2897      51.745537      0            
Loop time of 110.219 on 1 procs for 5000 steps with 21 atoms

Performance: 1.960 ns/day, 12.247 hours/ns, 45.364 timesteps/s, 952.650 atom-step/s
96.3% CPU use with 1 MPI tasks x 1 OpenMP threads

MPI task timing breakdown:
Section |  min time  |  avg time  |  max time  |%varavg| %total
---------------------------------------------------------------
Pair    | 109.5      | 109.5      | 109.5      |   0.0 | 99.35
Neigh   | 0.098502   | 0.098502   | 0.098502   |   0.0 |  0.09
Comm    | 0.0047168  | 0.0047168  | 0.0047168  |   0.0 |  0.00
Output  | 0.56101    | 0.56101    | 0.56101    |   0.0 |  0.51
Modify  | 0.010587   | 0.010587   | 0.010587   |   0.0 |  0.01
Other   |            | 0.04665    |            |       |  0.04

Nlocal:             21 ave          21 max          21 min
Histogram: 1 0 0 0 0 0 0 0 0 0
Nghost:              0 ave           0 max           0 min
Histogram: 1 0 0 0 0 0 0 0 0 0
Neighs:              0 ave           0 max           0 min
Histogram: 1 0 0 0 0 0 0 0 0 0
FullNghs:          366 ave         366 max         366 min
Histogram: 1 0 0 0 0 0 0 0 0 0

Total # of neighbors = 366
Ave neighs/atom = 17.428571
Neighbor list builds = 5000
Dangerous builds not checked
print $(0.000001 * pe) file pe.dat
print -0.40629574999999995555 file pe.dat
-0.40629574999999995555
print $(0.000001 * c_totalatomicenergy) file totalatomicenergy.dat
print 0 file totalatomicenergy.dat
0
write_dump all custom output.dump id type x y z fx fy fz c_atomicenergies modify format float %20.15g
Total wall time: 0:01:57
