ITEM: TIMESTEP
5000
ITEM: NUMBER OF ATOMS
21
ITEM: BOX BOUNDS ss ss ss
8.3032866504899860e-01 8.6207040652394333e+00
2.6712400858951537e+00 7.6628219674003750e+00
1.8489477419205822e+00 8.1255138839323600e+00
ITEM: ATOMS id type x y z fx fy fz c_atomicenergies
9 3     2.79757213659423     5.22807077889043     3.63574071472364    -20.4420547485352     4.48108291625977    -6.32104778289795                    0
12 1     2.88812586473224     5.90216410721017     4.63031162763901     19.5906448364258    -8.93796253204346     18.4365615844727                    0
1 1     7.06797409363095     3.95768710434154     4.65149051872219     13.0269784927368    -7.41058254241943     -9.6076488494873                    0
2 1     5.76149037488997     6.05329991527777      3.4054747510534    -7.36201000213623    -19.6941032409668     30.8272857666016                    0
3 1     7.62551849789805     4.53727130507616     3.47899003701895    -11.6214771270752    -15.2137546539307     31.6076240539551                    0
4 1      6.9071266513562     5.56033061647719     2.84274419556826     39.3571243286133    -11.3661956787109    -26.1702785491943                    0
7 1     5.27767642384696     5.55298486929525     4.61298534916979    -14.9575500488281    -14.3471937179565     31.1365489959717                    0
16 2     5.24742126381948     6.81841468586828     2.91773531491138    -28.7811164855957     37.3901519775391     -21.789608001709                    0
17 2     8.61970406523943     4.13442315728724     3.25299439611187    -0.24144983291626     3.54625415802002    -19.5813522338867                    0
18 2     7.21464733261958     5.96263079968473     1.84994774192058     3.31737875938416    -1.79013109207153     10.7309818267822                    0
5 1     1.84754938819912     6.57610530912794     5.52553717638082    -2.09227466583252    -12.6493425369263    -20.5855579376221                    0
13 3     4.13496761827013     6.08914398601104     5.22902540083048     10.8406896591187     10.2722549438477    -10.6107559204102                    0
14 2     4.45798843578148     4.17055826196651     8.12451388393236    -2.27008175849915    -8.97439289093018     10.8520736694336                    0
19 2     1.91160496509828     7.66182196740037     5.34350107329306    -7.74567651748657     4.64518642425537     -3.9554009437561                    0
20 2    0.831328665048999     6.14287083842602     5.33697514909246      9.9254264831543     9.96904182434082   -0.841805219650269                    0
21 2     2.13017808725907     6.45257405640224     6.57400871136132     3.55934572219849    -5.69185161590576     9.21620941162109                    0
10 3     4.71662639390837      4.6808719090488     7.34198284175956     11.8389434814453    -1.35746192932129    -15.5017328262329                    0
6 1     5.91887466760842     4.45038489869196     5.27370900787396    -11.0749835968018     18.2674388885498     -4.2480297088623                    0
8 3     5.66879058244077     2.67224008589515     6.89735301587156     8.55709838867188    -12.9656295776367      3.6031277179718                    0
11 1     5.45370284770818     3.81436471072716     6.56869254318776    -16.8384876251221     25.3260364532471     -10.458797454834                    0
15 2     7.51938333087778     3.04002344316364     5.07240974551965     3.41353487968445     6.50116920471191     3.26160073280334                    0
