88
Lattice="6.8037 0.0 0.0 -4.139012893 6.184814974 0.0 0.294028686 -0.269817895 22.405446357" Properties=species:S:1:pos:R:3:forces:R:3 energy=-570.90355005 pbc="T T T"
Si      -5.04227826       4.42100868       9.81219003       0.00251139       0.00108739       0.00147681
Si      -4.81136460       4.39020899      13.01872801       0.00078656       0.00182335       0.00317613
Si      -3.60757697       5.78224046       3.80809207       0.00168287      -0.00271396      -0.00026168
Si      -3.37021344       5.79987126      19.15367154      -0.00065761       0.00069664       0.00140844
Si      -1.65934612       4.46640413       1.86923284       0.00204076      -0.00028471       0.00000864
Si      -1.46163360       4.44778648      21.05980872      -0.00350750       0.00162554       0.00072532
Si      -1.16944572       2.16576832       3.73875251       0.00406752      -0.00057730      -0.00092260
Si      -0.95584874       2.16877092      19.05343744       0.00192605       0.00148353      -0.00087815
Si      -0.20490083       5.75434286       7.90354044       0.00250983      -0.00277042      -0.00021387
Si       0.10165442       5.77758371      15.02061963       0.00016185       0.00166407       0.00011802
Si       2.18627323       2.11413410       7.93994852       0.00003150      -0.00076946      -0.00254200
Si       2.51274217       2.13849025      14.93705527       0.00389015       0.00154943      -0.00145209
O       -5.77886816       6.26325208       6.97894334      -0.00246897      -0.00134233       0.00009565
O       -5.24478623       5.07683099       0.72245312       0.00160091       0.00227717       0.00133831
O       -5.03942561       4.49895169      11.43045537      -0.00050317      -0.00053961       0.00451849
O       -4.56566816       4.78456585       4.64040889       0.00102379      -0.00239012       0.00277265
O       -4.29345559       4.77893924      18.30958522       0.00130772      -0.00240475       0.00144411
O       -3.40185666       3.12097223      15.86729965       0.00236053      -0.00231137       0.00259237
O       -3.69706086       3.07606364       7.01283409      -0.00039736      -0.00210785      -0.00083251
O       -3.76787799       5.28194731       9.24388607      -0.00080143      -0.00263327       0.00056357
O       -3.49774757       5.24772401      13.51351297      -0.00095491      -0.00265428      -0.00003014
O       -2.76585228       0.93926618      11.50979281      -0.00145768      -0.00781633       0.00487171
O       -3.08699465       5.05130152       2.39121531       0.00228950      -0.00134893      -0.00031957
O       -2.86596348       5.18581017      20.64680788      -0.00155112       0.00048998       0.00135963
O       -2.46806514       1.71363148       4.58532712       0.00252805      -0.00290900       0.00287811
O       -2.24293908       1.66917909      18.22612743       0.00348967      -0.00034776       0.00012110
O       -2.39405556       1.27038576      -0.12853923      -0.00160050       0.00406254      -0.00753130
O       -1.71374198       4.57754398       0.25427491      -0.00286574      -0.00022593      -0.00221924
O       -1.93852696       5.08056012      11.16179595       0.00147764       0.00241396       0.00252700
O       -1.52171631       2.61686055       9.52738479      -0.00141287      -0.00003055       0.00063929
O       -1.31196105       0.07050689      15.91959731      -0.00129223      -0.00343525       0.00054686
O       -1.52561096       2.90594111       2.27893752      -0.00492881      -0.00277333       0.00102144
O       -1.42263807       2.94514099      20.45877266       0.00160336      -0.00052557       0.00129527
O       -1.15924956       4.77430384       7.03756085      -0.00138137      -0.00150941      -0.00258270
O       -1.12661099       2.74938285      13.53227523      -0.00325317       0.00098803       0.00356850
O       -0.89634600       4.83928917      15.87720695      -0.00122420       0.00210720       0.00054395
O       -0.22309509       3.10536451       4.66235921       0.00020759       0.00007348      -0.00118603
O       -0.00540150       3.10403730      18.14077503       0.00007682      -0.00237422       0.00210331
O       -0.41446797       5.36204507       2.44901824      -0.00045794       0.00138093      -0.00430910
O       -0.33966074       0.84470051       3.18786777      -0.00106608      -0.00229001      -0.00184077
O       -0.16669629       5.29875119      20.50958263      -0.00081928       0.00182698       0.00061210
O       -0.14345780       0.87949923      19.68523736       0.00136453       0.00021121       0.00194404
O        0.37237468       5.05434196       9.29176498       0.00377127       0.00164846      -0.00031957
O        0.54492065       1.44914088      11.56644360       0.00523366       0.00134029       0.00256642
O        0.62107397       4.98277246      13.66113334      -0.00334377       0.00313959       0.00282121
O        0.86037159       1.65981052       7.14379646       0.00123676       0.00142605      -0.00043265
O        0.63185709       1.49752354       0.10750605      -0.00470537       0.00425592      -0.00056741
O        1.21297636       1.63240081      15.74715580      -0.00166673      -0.00191077      -0.00119255
O        1.78035913       0.07075710       4.71364064       0.00485953       0.00096359      -0.00217267
O        1.80041057       2.84206796       9.40617000       0.00037940       0.00325251      -0.00049984
O        2.11149892       2.82798175      13.46299782       0.00131637      -0.00178498      -0.00173453
O        2.03197095       0.07441482      18.25613400      -0.00083333       0.00031226       0.00066691
O        2.22953662       2.30569693       2.22512695       0.00456989       0.00255508       0.00165709
O        2.24737717       2.67541837      20.54527780      -0.00067277      -0.00130322       0.00326834
O        3.03301460       0.81373456       8.49652043       0.00100062      -0.00131566      -0.00240670
O        3.41370195       0.86415325      14.36174135      -0.00115717       0.00162174      -0.00147390
H       -4.39758768       5.29124678       1.18555396       0.00108656       0.00087176      -0.00255184
H       -4.41720581       3.58249638      20.87633479      -0.00071793       0.00165316       0.00011387
H       -4.53377618       3.22236021       1.89928344      -0.00054961       0.00403277      -0.00040762
H       -3.01524422       5.33896344       9.91356261       0.00464887       0.00041026       0.00106325
H       -2.79154870       5.23633307      12.81509692      -0.00025710       0.00062588      -0.00146425
H       -2.17940956       2.06789393      10.01804713       0.00247059       0.00293073      -0.00493085
H       -2.89909269       1.55588240       0.66481224      -0.00135277       0.00262635       0.00405267
H       -1.99091133       1.79250948      21.68871763      -0.00227781      -0.00187382       0.00318900
H       -1.37967858      -0.28657688       0.25715278      -0.00050577      -0.00057513       0.00010774
H       -0.74869627       2.20433540      12.80629381       0.00329254      -0.00045254      -0.00416574
H       -1.54359385       4.28789801      10.72927056       0.00529612      -0.00643764       0.00155291
H       -0.66688301       2.27829565       9.85590092      -0.00236150      -0.00020264       0.00071314
H       -0.69759303       3.62434740      13.41158406      -0.00210004      -0.00432565      -0.00147911
H       -0.02195146       1.41013996      22.67725387       0.00099283       0.00444014       0.00374597
H        0.06195051       6.06783499      21.10535984       0.00220168       0.00005707      -0.00085090
H        0.41907188       5.25163414       1.88771037      -0.00218750       0.00362578      -0.00083797
H        1.13883559       1.69949239      12.30923806      -0.00239075      -0.00087047      -0.00268149
H        1.06408943       1.74832523      10.78385871      -0.00321231      -0.00032011       0.00311384
H        0.93754196       0.43407915      21.92888616      -0.00138124      -0.00279102      -0.00245484
H        1.67857160       2.23827835      21.22614942       0.00199970       0.00099813      -0.00186359
H        1.54451525       1.88111830       1.65251255      -0.00337490      -0.00095298      -0.00585910
H        2.89042406      -0.38728506      11.13941879       0.00101746       0.00098746       0.00197087
H        3.85346451       1.15867452      12.45358831      -0.00376180       0.00509379       0.00057414
H        4.83225163       0.37207850      11.54990355      -0.00448071       0.00229947      -0.00476019
Ca      -3.47349437       5.47624013       6.82472756      -0.00069937       0.00173068      -0.00103733
Ca      -3.19128782       5.47407026      16.08960348       0.00205827       0.00110632       0.00049080
Ca      -1.34780846       2.45616561       6.83926908      -0.00501461      -0.00087857       0.00035710
Ca      -1.04308012       2.45454631      15.98934052      -0.00083989      -0.00101189       0.00589664
Ca      -0.05882238       5.49391163       4.89715404       0.00044886      -0.00603331      -0.00191158
Ca       0.19696509       5.47981501      18.03712518      -0.00242550      -0.00018105      -0.00165058
Ca       2.09855388       2.44443692       4.82094404      -0.00161153       0.00064212      -0.00277697
Ca       2.33794246       2.45175253      18.06685142      -0.00033584       0.00189836      -0.00258721
