104
Lattice="6.8064 0.0 0.0 -4.110446609 6.204676621 0.0 0.625289135 0.845051123 28.212521555000002" Properties=species:S:1:pos:R:3:energies:R:1:forces:R:3 energy=-665.2166137695312 free_energy=-665.2166137695312 stress="0.007103304378688335 -0.0010531139560043812 -0.0012933621183037758 -0.0010531139560043812 0.005776624195277691 -0.0004260738496668637 -0.0012933621183037758 -0.0004260738496668637 0.005436086095869541" pbc="T T T"
Ca      -6.25963522       5.93737870      21.88599078      -6.34951591       0.00309410      -0.00137011       0.00045603
Ca      -6.08045901       6.02562940      14.01217149      -6.41812134      -0.00075902      -0.00428256       0.00152232
Ca      -4.31948478       2.75471965      22.03061225      -6.31069279       0.00266669      -0.00041478      -0.00511917
Ca      -3.49895815       5.65053050       7.85344802      -6.32796431      -0.00128303      -0.00108448      -0.00006720
Ca      -2.74363950       6.00183873      19.93158557      -6.30422544       0.00139686       0.00124527      -0.00186554
Ca      -1.54866261       2.46477433       7.93287288      -6.31023693       0.00127382       0.00112965      -0.00121756
Ca      -1.17930822       2.48332287      -0.15222925      -6.42886353      -0.00210750       0.00109389      -0.00188903
Ca      -0.61421274       2.95284242      19.85283587      -6.33080626       0.00015436       0.00072418      -0.00270893
Ca      -0.20126430       5.56608511       5.84956774      -6.31138086       0.00338225      -0.00048864       0.00015973
Ca       1.96111062       2.53133385       5.99253393      -6.34338045      -0.00265321      -0.00069954       0.00057757
Si      -6.21442383       6.29781342      18.86609040      -6.13329363       0.00305047      -0.00315077      -0.00544912
Si      -4.37841794       4.90015689      16.78475462      -6.03404522      -0.00185204      -0.00084063      -0.00169593
Si      -3.71859644       5.92781653       4.71624018      -6.11932278      -0.00306259      -0.00348401      -0.00032999
Si      -3.83550877       2.68984909      18.84046581      -6.15487480       0.00307425       0.00091056       0.00345437
Si      -3.21860662       1.39509915      11.08935064      -6.04702520      -0.00088373      -0.00030755       0.00049490
Si      -2.68840958       5.58959570      23.16957165      -6.12533855       0.00500235      -0.00081116       0.00274496
Si      -1.85171024       4.50845263       2.72425149      -6.03062153      -0.00230143      -0.00188590      -0.00367950
Si      -1.35684272       2.27960103       4.87802208      -6.15698814      -0.00047532       0.00058042       0.00517239
Si      -1.04054825       2.97390383      22.98732526      -6.15340662       0.00038392      -0.00231343       0.00049444
Si      -0.01692528       5.37116195       8.94836071      -6.15871763      -0.00054465      -0.00182964      -0.00317540
Si       0.83171387       1.66074310      25.16390363      -6.04145765      -0.00022389      -0.00058886       0.00091551
Si       1.71757010       2.80852723       9.08796681      -6.11317492      -0.00404528      -0.00014026      -0.00092623
O       -7.36521680       7.44124832      12.66976222      -6.47923708       0.00124903       0.00106808      -0.00265947
O       -5.81291569       6.26919087       8.06414396      -6.78034544       0.00177351       0.00241124       0.00395335
O       -5.97671628       5.87759909      24.39575302      -6.70649385      -0.00231660       0.00120875       0.00093174
O       -5.65276362       2.90517695       0.62836729      -6.82698965      -0.00038562       0.00119777      -0.00039769
O       -5.66998158       5.61447634      17.47719419      -6.13801384      -0.00501178       0.00059653       0.00307425
O       -4.67884195       4.87211834       5.49673819      -6.75172472       0.00228744       0.00109282      -0.00151259
O       -4.99238462       6.76748150      19.82569799      -6.85019445       0.00477596       0.00253627       0.00375520
O       -4.79001378       2.75181097       3.36104458      -6.66682959       0.00073108       0.00234400       0.00186000
O       -4.66301899       7.20240603       4.19235442      -6.16168833      -0.00128376       0.00112271      -0.00169019
O       -4.53294879       4.88274892      15.19348393      -6.48909140       0.00023353      -0.00083009       0.00021816
O       -4.22131201       6.90520428      12.45933209      -6.75351286       0.00129971      -0.00371969       0.00194217
O       -3.88348464       3.30405501       8.10874176      -6.88961029      -0.00219721       0.00208108      -0.00173809
O       -4.33866633       3.35772320      17.39209551      -6.13867283      -0.00006364       0.00585123      -0.00086980
O       -4.07961817       5.10206466      22.48138656      -6.71105146      -0.00149694      -0.00240543       0.00187602
O       -3.15216821       5.36361792       3.27148303      -6.15270805       0.00330834       0.00152190       0.00156082
O       -3.20674550       5.31724173      10.48320882      -6.76639080      -0.00267807      -0.00462701       0.00095835
O       -4.21794301       5.06760294       0.15441860      -6.62477255      -0.00095722       0.00217707      -0.00260063
O       -2.76980276       3.55026378      13.93611280      -6.53863382      -0.00303574       0.00537231      -0.00038055
O       -2.90387804       3.67646665      19.71524564      -6.70234919       0.00049131      -0.00260338      -0.00068450
O       -2.59938681       1.74375053       5.77869402      -6.87728167      -0.00040843      -0.00110604      -0.00262375
O       -2.52509007       6.40778594       5.71760866      -6.88530731       0.00076265      -0.00247544      -0.00033468
O       -2.93531817       6.32596252      24.65671774      -6.17334700       0.00121141      -0.00099163      -0.00002598
O       -3.49802767       1.61918636      -0.77939108      -6.74132681       0.00234042      -0.00510157      -0.00353687
O       -3.03884535       5.73877996      17.33888436      -6.45745611       0.00066822      -0.00074300       0.00193874
O       -2.94016752       1.40348187      18.25706674      -6.17937756       0.00255146      -0.00180866      -0.00082641
O       -2.04737739       1.61076925      15.62123566      -6.85330915      -0.00105896      -0.00451038       0.00044591
O       -1.87020555       2.20534792      10.48864801      -6.52622366      -0.00063647      -0.00028565       0.00310961
O       -1.94892921       3.08468545       3.56668550      -6.14839792       0.00099051      -0.00137790       0.00044151
O       -1.92079402       4.23863812       1.15716456      -6.41216660       0.00014148       0.00146326       0.00492838
O       -2.09017773       2.04931080      22.18034807      -6.71506310      -0.00100984      -0.00173148       0.00061806
O       -1.83991628       6.53110194      22.14493771      -6.84769249      -0.00131459       0.00019113      -0.00097945
O       -1.25341390       4.85098440       8.03759928      -6.86472130       0.00128763       0.00516013       0.00123277
O       -1.81508553       4.26992382      23.64880174      -6.12067986      -0.00022071       0.00389051       0.00029576
O       -0.46225699       5.26448263       3.28922618      -6.50912285      -0.00313505       0.00080523      -0.00155610
O       -0.35301135       3.16445013       5.78948319      -6.80245018      -0.00073549      -0.00063786      -0.00464306
O       -0.97705286       4.94025918      15.34355339      -6.82988119       0.00127247      -0.00305573       0.00057289
O       -1.40226670       0.68007025       1.58291686      -6.81575108       0.00281928       0.00080848       0.00106857
O       -0.62404670       6.14226549      10.29977520      -6.12772942       0.00115952      -0.00128056       0.00055505
O       -0.41655885       5.34515754      19.70410343      -6.84406853      -0.00616993       0.00044049       0.00022233
O       -0.75773308       5.08636803      26.41791705      -6.81268549       0.00137739      -0.00103921      -0.00710002
O       -0.30119440       2.95619191      17.29115329      -6.81272650      -0.00153052      -0.00354218      -0.00178128
O       -0.49665997       2.10096075      24.29530071      -6.10709906      -0.00046086       0.00093483      -0.00293235
O        0.19122550       3.47674615      22.04515297      -6.88569069      -0.00115558      -0.00021667      -0.00069720
O        0.77620736       1.75652498       8.30107555      -6.70527792      -0.00281774       0.00216358       0.00054173
O        0.83026625       4.20354625      12.41784238      -6.79398251       0.00208657      -0.00325599      -0.00161397
O        0.78010709       4.08214065       9.63805074      -6.17836237      -0.00256370       0.00039890       0.00309006
O        0.56353275       1.75955743      26.73146115      -6.43347692      -0.00030326      -0.00083299      -0.00002442
O        1.70526855       2.16567572      19.71257753      -6.87136459       0.00188078       0.00425863       0.00304637
O        2.32456962       2.29284854      10.54312147      -6.19041729      -0.00206053       0.00266588      -0.00198234
O        2.07084603       2.65298881      24.59318088      -6.47470045      -0.00269032      -0.00026835      -0.00114991
H       -8.39723286       8.20084509      -0.30520805      -6.32749414      -0.00301095      -0.00291461       0.00111989
H       -5.59976443       6.78979004      24.50032024      -6.16138649       0.00057199      -0.00113942      -0.00024870
H       -5.43223141       2.75120229       1.58154164      -6.31589794      -0.00228661       0.00124587      -0.00183697
H       -4.95175150       3.70608838       3.52519271      -6.09223795      -0.00237769       0.00251776      -0.00244012
H       -5.20038340       3.78345126       0.40521004      -6.38170004       0.00250781      -0.00001188       0.00056968
H       -5.18686438       5.31986504      24.20381821      -6.09272575       0.00212998      -0.00198689      -0.00220107
H       -4.97228973       6.13226564       1.17310495      -6.33096838       0.00079251       0.00021025       0.00035880
H       -3.57467702       4.03105868      14.36425668      -6.31306171      -0.00057493       0.00079265      -0.00270919
H       -3.80606534       2.70943309       3.27016155      -6.16745901      -0.00125483      -0.00009918      -0.00240249
H       -3.90323699       6.25026465      11.77217469      -6.35887527      -0.00165936       0.00384857       0.00447459
H       -3.99324275       2.76936530      25.21679190      -6.16991138       0.00206969       0.00084045       0.00030818
H       -4.13014652       5.76764209      -0.57781173      -6.29008389      -0.00021833       0.00081841       0.00098385
H       -3.03890177       2.74211039      13.40044264      -6.25358629       0.00237289      -0.00255310       0.00138778
H       -3.24976640       4.36413031      10.69549443      -6.11089325       0.00046611       0.00181399      -0.00268466
H       -2.56567766       1.48522586      16.45817994      -6.13506317      -0.00372441       0.00292202      -0.00081977
H       -2.23714622       5.54429988      10.51664123      -6.19381523       0.00052763       0.00276113      -0.00168766
H       -3.29371880       4.82191724       0.50131796      -6.26321650      -0.00016862       0.00223620       0.00293899
H       -2.40678080       2.42014169      15.14479762      -6.28663349       0.00334870      -0.00026899       0.00059276
H       -3.00623820       1.49673679      27.46956266      -6.22719336       0.00076002       0.00399260       0.00290094
H       -2.26269999       5.66099531      16.73957002      -6.23484945       0.00187366      -0.00185146      -0.00059411
H       -1.57244945       4.37481626      14.77219654      -6.34006023       0.00347687      -0.00033657       0.00166020
H       -1.07228985       2.00688403      11.02592643      -6.18573523       0.00352510       0.00144870       0.00074824
H        0.02243773       5.82652338       2.63360120      -6.25393867       0.00230646      -0.00222699       0.00465037
H       -0.62976292       4.33734947      16.05419766      -6.25326681       0.00116757      -0.00023104      -0.00099079
H       -0.97061850       0.87694464       2.45371374      -6.16954279      -0.00390721      -0.00207916      -0.00080927
H       -1.62398401       5.26749108      25.99289247      -6.18145180       0.00305573       0.00195327       0.00302465
H        0.71595018       1.04689950      12.84604156      -6.20045185       0.00286516      -0.00350239       0.00506687
H       -0.74058636       2.28143165      16.71583044      -6.25408792       0.00208274       0.00510061       0.00315993
H       -0.11709702       5.30792494      25.68549415      -6.32982445      -0.00621764       0.00218722      -0.00016129
H        0.70793471       4.21043475      11.43505190      -6.19401503      -0.00055611       0.00022964       0.00000312
H        0.67603099       2.84029827      17.20441833      -6.15594864       0.00206000      -0.00117348      -0.00054776
H        1.54039455       3.55067082      12.55434489      -6.16230536      -0.00429260      -0.00185184       0.00041998
