62
Lattice="11.2714 0.0 0.0 -0.043430255 7.399172541 0.0 -0.324002368 -1.991989071 9.511957932000001" Properties=species:S:1:pos:R:3:energies:R:1:forces:R:3 energy=-456.4949035644531 free_energy=-456.4949035644531 stress="0.007813011296093464 -0.0011717660818248987 -0.0013470168923959136 -0.0011717660818248987 0.007620466873049736 -0.004339124541729689 -0.0013470168923959136 -0.004339124541729689 0.007403731811791658" pbc="T T T"
Ca      -0.19124141      -0.56347328       4.74433299      -7.63520670       0.00183867       0.00167379       0.00106477
Ca       1.58848907      -0.94379201       1.18976357      -7.67878485      -0.00259327      -0.00038432      -0.00007848
Ca       1.50257153       2.74885311       1.03330846      -7.69756746       0.00223957       0.00007599       0.00062834
Ca       3.66357821       2.64913064       8.32009437      -7.67425776       0.00168669       0.00006394      -0.00000532
Ca       3.81672663      -1.09316728       8.48997330      -7.70274258      -0.00018560       0.00152561       0.00153493
Ca       5.42915457       3.13836676       4.74567265      -7.63557768      -0.00250358      -0.00190965       0.00010656
Ca       7.20062171       2.75548897       1.19042827      -7.67872381       0.00211329       0.00090214       0.00081149
Ca       7.16136462      -0.95139877       1.03813623      -7.69802713      -0.00240070       0.00122486       0.00096924
Ca       9.32151939      -1.04976779       8.31937164      -7.67431831       0.00018747       0.00113365      -0.00099544
Ca       9.43070525       2.60713941       8.48802083      -7.70268106      -0.00025252      -0.00199918      -0.00010807
Si       0.88271857      -2.64812715       7.47787814      -7.04005289      -0.00084755      -0.00139143       0.00181654
Si       0.93931490       0.48447783       7.40211814      -6.99037123       0.00152191       0.00371942      -0.00111044
Si       1.80951699       2.65595520       5.41338202      -6.98583508       0.00327774      -0.00026203      -0.00002055
Si       3.45409658      -0.97717222       4.11435907      -6.98788595       0.00350696      -0.00041526      -0.00190053
Si       4.34921574       4.32165687       2.07095775      -6.99820995       0.00436606      -0.00174640       0.00025468
Si       4.39684109       1.14873838       2.08186232      -7.03368473      -0.00178803       0.00196334       0.00225918
Si       6.49603216       1.05292666       7.47970054      -7.03969812       0.00626079       0.00083805       0.00207760
Si       6.55136240       4.18610348       7.40746267      -6.99096155      -0.00174069       0.00047563      -0.00106384
Si       7.46089922      -1.04137556       5.41473299      -6.98663235      -0.00900035      -0.00309447      -0.00252015
Si       9.07371917       2.72669940       4.11370564      -6.98877954       0.00808888       0.00081506       0.00236307
Si      10.00780431       0.62522924       2.06745467      -6.99885988      -0.00236903       0.00263379      -0.00216293
Si      10.01171526       4.85045955       2.08024084      -7.03299427       0.00087720      -0.00018804      -0.00044767
O       -0.51992142       4.50062734       8.30092910      -7.59935331       0.00006072      -0.00032741       0.00046834
O       -0.43402052       0.80182189       8.18259597      -7.59855175      -0.00124010       0.00151823       0.00078988
O        0.12551750       0.94844503       1.33017856      -7.53997278      -0.00164637      -0.00008725       0.00241363
O        0.08796013       4.56842433       1.24245732      -7.65792847       0.00025846       0.00045454       0.00222315
O        0.82554671      -1.09521218       6.83794389      -7.14908981      -0.00237259       0.00031822       0.00202003
O        0.83892963       3.82984546       6.09327187      -7.07993555      -0.00018260       0.00342432      -0.00032104
O        1.04224564       1.24258186       5.91009612      -7.19861603      -0.00230231      -0.00272879       0.00192122
O        1.49276693       2.81713458       3.78264470      -7.36377192      -0.00135260      -0.00056513      -0.00024573
O        1.91728382      -0.94818732       3.67245385      -7.46046829      -0.00041818      -0.00009407      -0.00069131
O        2.22202636       0.72258535       8.34085192      -7.75005102       0.00031537      -0.00002237       0.00158022
O        2.20354357      -2.86541780       8.38219156      -7.75974846      -0.00236362       0.00050298       0.00029032
O        3.06706714       4.56715680       1.12724078      -7.77215195      -0.00131746       0.00101371      -0.00303048
O        3.08074379       0.93155805       1.17737754      -7.73691845       0.00091499      -0.00091888      -0.00024366
O        3.34784909       2.71467152       5.84621536      -7.48162508      -0.00425636      -0.00147669      -0.00142457
O        3.77543139      -0.88481382       5.74926113      -7.36584616      -0.00079319       0.00020132       0.00104625
O        4.21696433       5.05006885       3.57612996      -7.19508076      -0.00168326       0.00394092       0.00213690
O        4.38987850       0.26914094       3.49266382      -7.10713053       0.00014889      -0.00041762      -0.00077210
O        4.46130529       2.73091911       2.63422387      -7.14766550      -0.00047379       0.00143877      -0.00063604
O        5.22223994      -2.89846920       8.19023350      -7.59896040      -0.00039635       0.00121250      -0.00129452
O        5.13867616       0.80145958       8.30579657      -7.60136652      -0.00235922      -0.00159380      -0.00072716
O        5.73946930       4.64776735       1.33728714      -7.53783178       0.00102110       0.00075895       0.00008173
O        5.74553481       0.86653057       1.24633176      -7.65589809       0.00218429       0.00086456      -0.00197335
O        6.43864604       2.60690090       6.84221081      -7.15014505      -0.00053153      -0.00402145       0.00011693
O        6.49222498       0.13524262       6.09276102      -7.08059645       0.00245816      -0.00037396      -0.00105268
O        6.65010337       4.94577793       5.91600762      -7.19941854       0.00425476       0.00089911      -0.00013627
O        7.14181554      -0.88596798       3.78402917      -7.36504936       0.00204858       0.00250985       0.00007332
O        7.53649462       2.75653969       3.67415726      -7.45986080      -0.00566830      -0.00240079      -0.00154252
O        7.81838131       0.83434268       8.38147593      -7.75835514      -0.00679023       0.00034829      -0.00270770
O        7.83555550       4.42408467       8.34388362      -7.74892282       0.00190045      -0.00093565       0.00003906
O        8.69494209       4.62957309       1.17800570      -7.73596382      -0.00030510       0.00082292      -0.00254926
O        8.72386758       0.87095486       1.12625966      -7.77071142       0.00258867      -0.00207420       0.00105352
O        8.99970426      -0.98299955       5.84450911      -7.48177433       0.00723037       0.00077249       0.00096441
O        9.39610565       2.81526067       5.74845861      -7.36647129      -0.00118454      -0.00090469      -0.00107617
O        9.87921886       1.35546226       3.57207003      -7.19421196      -0.00041102      -0.00318985       0.00094773
O       10.00882611       3.97480741       3.49359921      -7.10872507      -0.00199722      -0.00295205       0.00005400
O       10.11728223      -0.96548747       2.63058771      -7.14819622       0.00073777      -0.00354917       0.00018839
H        0.62822108       3.27708006       3.67630281      -6.92057610      -0.00038098      -0.00121830      -0.00239684
H        4.64633966      -0.43642749       5.87127356      -6.93715668       0.00207906      -0.00040391       0.00055351
H        6.27268792      -0.43469200       3.67628554      -6.92081499       0.00238915       0.00209680      -0.00092104
H       10.27136639       3.25543078       5.87111882      -6.93805361      -0.00244803       0.00150317       0.00130664
