LAMMPS (29 Sep 2021 - Update 2)
OMP_NUM_THREADS environment is not set. Defaulting to 1 thread. (src/comm.cpp:98)
  using 1 OpenMP thread(s) per MPI task
# Compute elastic constant tensor for a crystal at finite temperature
#
# WARNING: This script attempts to measure small differences in
# statistical averages generated by finite temperature MD simulations.
# This creates many more opportunities for errors to occur, compared
# to the zero temperature version provided in examples/ELASTIC.
# Hence, it is always a good idea to start with the zero temperature
# calculation, before attempting to use this script.
#
# Written by Aidan Thompson (Sandia, athomps@sandia.gov)
#
#  This script uses the following three include files.
#
#   init.mod      (must be modified for different crystal structures)
# 	       	  Define units, MD parameters, deformation parameters,
#		  and initial configuration of the atoms and simulation cell.
#
#
#   potential.mod    (must be modified for different pair styles)
# 		     Define pair style and other attributes
#		     not stored in restart file
#
#
#   displace.mod    (displace.mod should not need to be modified)
# 		    Perform positive and negative box displacements
# 		    in direction ${dir} and size ${up}.
# 		    It uses the resultant changes
#		    in stress to compute one
# 		    row of the elastic stiffness tensor
#
#		    Inputs variables:
#		    	   dir = the Voigt deformation component
#		    		    (1,2,3,4,5,6)
#		    Global constants:
#       	    	   up = the deformation magnitude (strain units)
#       		   cfac = conversion from LAMMPS pressure units to
#               	   output units for elastic constants
#
#
#  To run this on a different system, it should only be necessary to
#  modify the files init.mod and potential.mod. In order to calculate
#  the elastic constants correctly, care must be taken to specify
#  the correct units in init.mod (units, cfac and cunits). It is also
#  important to verify that the MD sampling of stress components
#  is generating accurate statistical averages.
#  One indication of this is that the elastic constants are insensitive
#  to the choice of the variable ${up} in init.mod. Another is to
#  check for finite size effects.
#

# include init.mod

# NOTE: This script can be modified for different atomic structures,
# units, etc. See in.elastic for more info.
#

# Define the finite deformation size. Try several values of this
# variable to verify that results do not depend on it.
variable up equal 2.0e-2

# real units, elastic constants in GPa
units		metal
atom_style atomic
variable cfac equal 1.0e-4
variable cunits string GPa

# Define MD parameters
variable nevery equal 10                  # sampling interval
variable nrepeat equal 10                 # number of samples
variable nfreq equal ${nevery}*${nrepeat} # length of one average
variable nfreq equal 10*${nrepeat} 
variable nfreq equal 10*10 
variable nthermo equal ${nfreq}           # interval for thermo output
variable nthermo equal 100           
variable nequil equal 10*${nthermo}       # length of equilibration run
variable nequil equal 10*100       
variable nrun equal 3*${nthermo}          # length of equilibrated run
variable nrun equal 3*100          
variable temp equal 300                   # temperature of initial sample
variable timestep equal 0.001             # timestep
variable adiabatic equal 2                # adiabatic (1) or isothermal (2)
variable tdamp equal 0.01                 # time constant for thermostat
variable seed equal 123457                # seed for thermostat

# generate the box and atom positions using a diamond lattice
variable a equal 5.431

boundary	p p p
newton off


box tilt large
read_data tob11_ref_deepmd.data
Reading data file ...
  triclinic box = (0.0000000 0.0000000 0.0000000) to (6.8037000 6.1848150 22.405446) with tilt (2.6646871 0.29402869 -0.26981789)
  1 by 1 by 1 MPI processor grid
  reading atoms ...
  88 atoms
  read_data CPU = 0.001 seconds

pair_style	nequip
pair_coeff	* * tob11_l3-deployed.pth Ca H O Si
mass            1 40.079800
mass            4 28.08500
mass            3 15.9994
mass            2 1.00794


change_box all triclinic
Changing box ...
  triclinic box = (0.0000000 0.0000000 0.0000000) to (6.8037000 6.1848150 22.405446) with tilt (2.6646871 0.29402869 -0.26981789)

velocity	all create ${temp} 87287
velocity	all create 300 87287

thermo 100
min_style cg
minimize 1.0e-15 1.0e-15 100000 100000 #设置能量最小化
WARNING: Using 'neigh_modify every 1 delay 0 check yes' setting during minimization (src/min.cpp:188)
Neighbor list info ...
  update every 1 steps, delay 0 steps, check yes
  max neighbors/atom: 2000, page size: 100000
  master list distance cutoff = 6
  ghost atom cutoff = 6
  binsize = 3, bins = 4 3 8
  1 neighbor lists, perpetual/occasional/extra = 1 0 0
  (1) pair nequip, perpetual
      attributes: full, newton off
      pair build: full/bin/atomonly
      stencil: full/bin/3d
      bin: standard
Per MPI rank memory allocation (min/avg/max) = 4.213 | 4.213 | 4.213 Mbytes
Step Temp E_pair E_mol TotEng Press 
       0          300   -571.45819            0    -568.0845    22082.848 
     100          300   -577.85193            0   -574.47824    11961.034 
     130          300   -577.86237            0   -574.48868    12235.548 
Loop time of 173.308 on 1 procs for 130 steps with 88 atoms

99.9% CPU use with 1 MPI tasks x 1 OpenMP threads

Minimization stats:
  Stopping criterion = energy tolerance
  Energy initial, next-to-last, final = 
     -571.458190917969  -577.862365722656  -577.862365722656
  Force two-norm initial, final = 16.218337 0.070429361
  Force max component initial, final = 3.6757267 0.018077618
  Final line search alpha, max atom move = 0.23889980 0.0043187392
  Iterations, force evaluations = 130 268

MPI task timing breakdown:
Section |  min time  |  avg time  |  max time  |%varavg| %total
---------------------------------------------------------------
Pair    | 173.3      | 173.3      | 173.3      |   0.0 | 99.99
Neigh   | 0.00074744 | 0.00074744 | 0.00074744 |   0.0 |  0.00
Comm    | 0.0026481  | 0.0026481  | 0.0026481  |   0.0 |  0.00
Output  | 7.987e-05  | 7.987e-05  | 7.987e-05  |   0.0 |  0.00
Modify  | 0          | 0          | 0          |   0.0 |  0.00
Other   |            | 0.005563   |            |       |  0.00

Nlocal:        88.0000 ave          88 max          88 min
Histogram: 1 0 0 0 0 0 0 0 0 0
Nghost:        1037.00 ave        1037 max        1037 min
Histogram: 1 0 0 0 0 0 0 0 0 0
Neighs:         0.00000 ave           0 max           0 min
Histogram: 1 0 0 0 0 0 0 0 0 0
FullNghs:      7310.00 ave        7310 max        7310 min
Histogram: 1 0 0 0 0 0 0 0 0 0

Total # of neighbors = 7310
Ave neighs/atom = 83.068182
Neighbor list builds = 1
Dangerous builds = 0

thermo_style  custom step temp press etotal lx ly lz xy yz xz pxx pyy pzz

#timestep 0.0001

#fix 456 all nve
#fix 567 all langevin 300.0 300.0 0.1 12345

#run 5000

#unfix 456
#unfix 567
fix 123 all npt temp 300 300 1 tri 1.0 1.0 1
run 10000
Per MPI rank memory allocation (min/avg/max) = 3.104 | 3.104 | 3.104 Mbytes
Step Temp Press TotEng Lx Ly Lz Xy Yz Xz Pxx Pyy Pzz 
     130          300     12235.57   -574.48868       6.8037     6.184815    22.405446    2.6646871  -0.26981789   0.29402869     7986.937    14484.813    14234.959 
     200    156.54928    4984.3934   -574.56983    6.8319008    6.2259261    22.572901    2.6845663  -0.17850319   0.17510497     9285.653   -440.46942    6107.9967 
     300    132.57509   -6236.7381   -574.55299     6.839525    6.2404777     22.76006    2.7308242    0.1837865  -0.23877206   -3118.3986   -5047.2417   -10544.574 
     400    157.36036    629.80579   -574.44608    6.7477353    6.2104837    22.560381    2.7514175   0.37684861  -0.65602951     1621.665    1495.8869   -1228.1346 
     500    161.17439   -788.50688   -574.41344    6.7797397    6.2640424    22.511774    2.8100519   0.20194864  -0.79379927   -3233.4204   -1017.2407    1885.1405 
     600    193.17218    -8239.256   -574.31307    6.8445823    6.2848133    22.525225    2.8276785  -0.08198922  -0.69924985   -11031.387   -11415.068   -2271.3128 
     700    193.90228    5570.2234   -574.22698    6.8273607     6.178071    22.559104    2.7639291     -0.22773  -0.63882557   -450.66385     16059.24    1102.0944 
     800    183.68654   -2899.2727    -574.1413     6.826263    6.1807836    22.714862     2.708278  -0.20556667  -0.69297501   -5994.2222    7227.2315   -9930.8273 
     900    170.39624   -54.129779   -574.06651    6.7811854    6.2479412    22.571969    2.6951109  -0.17210988  -0.76375649   -891.07671    -4830.183    5558.8704 
    1000    184.06971   -2816.3241   -574.00186    6.7863494    6.2964013     22.51332    2.7805497  -0.26776523  -0.73808891   -563.40023    -10353.04    2467.4678 
    1100    190.84474   -1476.8414   -573.97212    6.7914537    6.2559274    22.672258        2.839  -0.26771812  -0.58803243    1006.2562   -3965.0961   -1471.6844 
    1200    181.55503    6304.7248   -573.82683    6.7741116    6.1739222    22.810214    2.8550272 -0.081375993  -0.53536546    11454.828    9168.9457   -1709.5994 
    1300    185.55026   -7877.3889   -573.78788    6.8246921    6.2265238    22.823603    2.7982446   0.18364912   -0.5473339   -5717.0011   -5422.0305   -12493.135 
    1400    210.90718    2514.3326   -573.63798    6.7963238    6.2720532    22.355383    2.6807988   0.26558956  -0.58145634     5027.273   -10968.101    13483.825 
    1500    189.22725    4702.0173   -573.60932    6.8022731    6.2788468    22.482414    2.6412717  -0.10251876  -0.46452421    6423.5456    3049.0619    4633.4446 
    1600    194.81899   -2587.8084   -573.51006    6.8497198    6.1847733    22.688377    2.7279568  -0.62578415   -0.4942475   -6834.4777    2943.2793   -3872.2269 
    1700    212.90497    8602.1607    -573.3519    6.8363796    6.1370137    22.630122    2.8471318  -0.67803017   -0.6664774   -3890.8576    18448.506    11248.834 
    1800    208.98894   -9340.9052   -573.28608    6.8116055    6.2868757    22.717682    2.8838536   -0.2266914  -0.79916423    -10044.48   -9095.2762   -8882.9598 
    1900    237.44144    7827.4522   -573.13811    6.7206305    6.3441267     22.41502    2.7912132   0.18291022  -0.64863402    11434.066   -11282.262    23330.553 
    2000    222.39549   -4097.6161   -573.18231    6.7667471    6.2713004    22.580265    2.7086095   0.42515653  -0.34560066     4208.101   -10687.707    -5813.242 
    2100    216.29933    -3939.011   -573.01142    6.8951233    6.1344098    22.821221    2.7090252   0.57564513   0.13113434   -6148.8092    14909.316    -20577.54 
    2200    215.51723    6005.6527   -572.90694    6.9166763     6.136119    22.647169    2.7254843   0.44057215   0.52777792   -3853.1551    14419.583    7450.5301 
    2300    228.36377   -2756.4217     -572.876    6.8203748    6.2768251    22.656317    2.7110403   0.16069266    0.9043201    7732.8902   -11652.442   -4349.7135 
    2400    214.91937    13245.831   -572.71438    6.7086994    6.3037435     22.53782    2.7252536   0.12999083   0.98762979    11954.086    7072.5717    20710.835 
    2500    233.54635   -1448.1284   -572.71945    6.7504946    6.2791525    22.724602    2.8108542   0.40070853   0.78674188     3656.624   -5600.8548   -2400.1544 
    2600    228.28693    2876.9871   -572.59158    6.8579538    6.1741878    22.763159    2.8621283   0.70474857   0.38317637   -5438.6826    9029.9027    5039.7412 
    2700    254.26427   -1650.1498   -572.48762    6.8655643    6.1611919    22.829794    2.8038925   0.68003099  0.071588668   -18879.174    17498.383   -3569.6582 
    2800    234.10934   -7805.8146   -572.46519    6.7903347    6.2645084    22.825661    2.6883881   0.34908856 -0.041975711    1147.1646   -12191.766   -12372.843 
    2900    294.19025     16405.29   -572.34033    6.7086229    6.2613101    22.517789    2.6391307  -0.11498253  -0.15407986    22335.886    6446.2059    20433.777 
    3000    275.99937    3480.0815   -572.29862    6.8069423    6.2395438    22.593996    2.7165039  -0.43861017  -0.29190974    6412.6585   -34.363999      4061.95 
    3100    251.57313   -890.03259   -572.11756    6.8834951    6.1850842    22.698619    2.7991146  -0.63624129  -0.33738554    4894.0554    483.01679     -8047.17 
    3200    243.53217    2947.2758   -572.03989    6.8474902    6.1671896    22.837363    2.7919805  -0.63504908  -0.35309909    7846.9919    9016.2504   -8021.4151 
    3300    257.50351    3751.9988   -572.05459    6.7319583    6.2215917    22.775515    2.7144361  -0.18063651  -0.16203241    6765.0575   -3497.9123    7988.8512 
    3400     287.5496    -1353.352   -571.92874     6.747388    6.2952654    22.651298    2.7087216   0.42291124  0.083379335    1429.0889   -12837.007    7347.8623 
    3500     280.0466    -10011.42   -571.82513    6.8364509    6.2980109    22.679342    2.7725307   0.71310138   0.39167019   -11436.848   -14372.621   -4224.7912 
    3600    275.44969    2415.2878   -571.72368    6.8304762    6.1651943    22.758044    2.8089944   0.62859208   0.75708894   -2892.5564    8555.9811    1582.4388 
    3700    286.40818     3057.624   -571.70378    6.8425563    6.1767186     22.91888    2.8135082   0.33833565    0.7704774   -4261.2756    7662.9829    5771.1647 
    3800    257.10083   -9930.6349   -571.69663     6.824274    6.2869184    22.748781    2.7509511 -0.009896375   0.50115543   -2085.7934    -14272.33   -13433.781 
    3900    303.24354    7348.0528   -571.54235    6.7728857    6.2667446    22.479044    2.6759859  -0.38676608   0.12698748    -5050.699    14808.965    12285.892 
    4000     321.9385   -9325.7511    -571.4479    6.8174004     6.215329    22.833059    2.6802339  -0.61129969  -0.17186168   -21014.699    726.86507   -7689.4194 
    4100    303.20398    14359.121   -571.39753    6.7893793    6.1739421    22.844791    2.7194471  -0.41977797  -0.24184507    19472.841    13172.042    10432.479 
    4200    302.51304    3950.7146   -571.37301     6.821192     6.244482    22.664235    2.7783015  0.012872275  -0.14054872    15464.052   -3104.6706   -507.23775 
    4300    288.87229    4040.5173   -571.21763    6.8415095    6.2855283    22.555512    2.8013059   0.32739228  0.051561791     2703.165   -14.090202     9432.477 
    4400    306.04255     811.3349   -571.17402    6.7974599    6.2464662      22.5875     2.785948   0.26964259    0.3720436    3854.6087    897.68179   -2318.2858 
    4500    329.40693    -1748.958   -571.07765    6.8216872     6.221549    22.850697    2.7628016    0.1091719   0.52096445   -3200.8685     2038.653   -4084.6585 
    4600    327.72216    9591.4005   -571.00102    6.8363335    6.1757523    22.928405    2.7509859 0.0047714811    0.4539982    4440.4412    28638.234   -4304.4737 
    4700    315.64351      1801.07   -570.96162     6.830803    6.2591773    22.666755    2.7361305 -0.015986818   0.17351035   -7846.8509    5955.2335    7294.8275 
    4800    312.50092    6024.8901    -570.8896    6.7755629    6.2752462    22.639862    2.7336969 -0.069920276  0.085070755    3568.3196    4372.9244    10133.426 
    4900    317.32203    10528.936    -570.7918    6.7536492    6.2315045    22.747473    2.7465338  -0.28902357   0.20837846     23510.85    12270.527   -4194.5694 
    5000    344.86396   -6976.9038   -570.75924     6.839568    6.2617795    22.776206    2.7694682  -0.29347554   0.20597629   -2408.5252   -15574.397   -2947.7888 
    5100    318.11958    11061.126   -570.72632    6.8592567    6.2088157    22.594891    2.7852314   0.13002414 -0.052513661    9620.3627    10210.564    13352.452 
    5200    336.36808   -6076.4602   -570.61833    6.8574679    6.2449096    22.609357    2.7643655   0.49138552   -0.3172777   -9533.1154   -4274.6427   -4421.6223 
    5300    353.05393   -473.36511   -570.63094    6.7764987    6.2289148    22.790131    2.7286322   0.38941346  -0.28530209     2909.624    7344.8353   -11674.555 
    5400    286.86435   -4354.5733   -570.59489    6.7971549    6.2539659    22.748756    2.7718922  -0.11972432  0.079489308   -2572.6046    3448.3358   -13939.451 
    5500    375.09766   -3071.0763   -570.44512      6.87551    6.2423581    22.418434    2.8115824  -0.40515287   0.18049958   -21886.271   -4912.0472    17585.089 
    5600    348.06549    -3127.644   -570.43515    6.8471099     6.175456    22.676264    2.7800955  -0.22250856   0.15168083    -8797.678    331.57722   -916.83122 
    5700    322.94415    5670.7423   -570.39142    6.8110635    6.1967529    22.717392    2.6992105  -0.10536129   0.22369114    21134.717    2081.3629   -6203.8534 
    5800    332.24628   -7958.6902   -570.41047    6.8603197    6.2569797    22.549332    2.6729659  0.096458843   0.17699922    4740.3068     -17420.6   -11195.778 
    5900    337.43667    11071.208   -570.43389    6.8381591    6.2174271    22.384161    2.7310573   0.34755264   0.23318917    14407.673   -555.59114    19361.542 
    6000    340.90983   -14874.293   -570.46038    6.8129022    6.2200049    22.894134    2.8102217   0.44515534   0.05087925     -13820.3   -14727.927   -16074.653 
    6100    321.46292   -7296.3625   -570.50323    6.8177543    6.1831918    22.934567    2.8359479   0.12956367 -0.017351882   -7314.5767   -3217.8584   -11356.653 
    6200     347.5574    7205.6106   -570.48029    6.8262619    6.2278977     22.48434    2.8012501  -0.27413148  0.045871845     2250.876    5315.1378    14050.818 
    6300    300.37738   -5224.6532   -570.48803     6.828397    6.3275383    22.510085    2.7218825  -0.33650005 -0.059524211   -2533.6918   -13301.634    161.36598 
    6400    284.31509   -5736.8822   -570.59109    6.7259668    6.2594111    22.719628    2.6404374 -0.052549181  -0.22939971    465.24592   -16695.081   -980.81155 
    6500     314.4769   -5913.2371   -570.66883    6.7685898    6.1846562    22.993022    2.7201409   0.33062955  -0.31799268   -2222.0931   -790.18426   -14727.434 
    6600    342.08715    7654.9469   -570.74237    6.8748091    6.2199464    22.750983    2.8411149   0.47349052  -0.27523482    5519.1791    16350.413    1095.2482 
    6700    299.93276    10709.963   -570.73327    6.8325974    6.3136591    22.260872    2.8612717   0.44728898 -0.0084550728   -4189.4149    4369.3754    31949.928 
    6800    282.56264    10619.692   -570.92952    6.7500031     6.304108    22.567132    2.7707501   0.28328867   0.20441675    17526.975    8512.9539    5819.1477 
    6900    316.70308    2097.6349   -570.93371    6.7890438    6.2053044    22.899126    2.7028954  0.041116367   0.30672767     12177.39    9780.3164   -15664.802 
    7000    325.83754   -4867.8604   -570.94415    6.8751201    6.1993154     22.73813    2.7066168  -0.12600369   0.26408949   -7864.7317   -3000.6688   -3738.1807 
    7100    318.91146    4274.7667   -571.03235    6.8491368    6.2338238    22.470632    2.7153147  -0.10236474   0.05264311     8558.235    3204.1309    1061.9343 
    7200     327.7243    2698.7573   -571.12636    6.8182014    6.2553642     22.40353     2.750587   0.18009988  -0.23497307   -911.96833   -1448.9717    10457.212 
    7300    266.12238   -4228.6198    -571.1039    6.7910254    6.2838648    22.676059    2.8189638   0.41263659  -0.33040564     3647.826   -21301.344    4967.6582 
    7400     303.6922    4729.6788   -571.21949    6.8149345    6.2393113    22.726395     2.845873   0.40087698  -0.27742702    5174.1194     9580.869   -565.95202 
    7500    283.87669   -1400.9693   -571.29597    6.8772033     6.196639    22.622857    2.8118662  0.085985078 -0.027217254   -8941.5139    12889.056   -8150.4498 
    7600      356.171    7540.6971   -571.34125    6.8060146    6.2216797     22.54253    2.6844314  -0.16823657   0.10747843    1135.7452    13877.419    7608.9268 
    7700     314.6612    76.534539   -571.32698    6.7677178    6.3153213    22.565424    2.6343444  -0.20011211   0.12889239    6007.4403   -13960.306    8182.4692 
    7800    277.88691    1712.3017   -571.45378    6.8233179    6.2655254    22.577647    2.7372213 -0.028870585 -0.073774233   -2248.0691      4257.61    3127.3643 
    7900    320.44176    7065.3948   -571.44092    6.8373929    6.1762913    22.664742    2.8617061  0.098536112  -0.18424055    676.92228    19786.104     733.1581 
    8000    271.16716   -6394.5699   -571.46099    6.8499956    6.2184603    22.855257    2.9050758   0.28707228  -0.17604124    1527.5889    -9642.662   -11068.637 
    8100    303.62882   -872.70922   -571.58282    6.8062335    6.2676336    22.713089    2.7972005   0.40352764  -0.19974022    2239.6255   -1639.8697   -3217.8835 
    8200    307.01951     17606.92   -571.56068    6.7535056    6.2419872    22.398109    2.6461637   0.44912411   0.11345631    14613.291    6444.8102    31762.657 
    8300    288.52217   -8982.6281   -571.54542    6.8249569    6.2400603    22.909648     2.620761   0.19919898   0.51745485   -9926.3525    212.28533   -17233.817 
    8400    274.80478    14786.278   -571.58567    6.7748585    6.1515325    22.860493    2.6733172  -0.15588229    0.4592372    17668.168    15189.108    11501.558 
    8500    271.20016   -6226.7468   -571.65471    6.8462369    6.2232734    22.893651    2.7762696  -0.13488529  0.063943601   -6216.7716   -7739.9457   -4723.5231 
    8600    269.99735    1182.8482   -571.62216    6.8433325    6.2663291    22.730018    2.8165453 0.0022622116  -0.45597858    2099.4304   -6274.0453    7723.1594 
    8700    285.34052   -3845.9348   -571.56094    6.7961871    6.2353623     22.60376    2.7664789 -0.037610323  -0.67298817   -8528.3549   -1846.5625   -1162.8869 
    8800     302.1701    9553.0744   -571.60716    6.8068558    6.2055321    22.661555    2.7244273  -0.18341571  -0.55279532    9638.9403    10208.553    8811.7304 
    8900    253.11074   -4928.9628   -571.58726    6.8714245    6.2337679    22.787014      2.70928  -0.33901521  -0.16135293   -7139.9741     1372.427   -9019.3414 
    9000    290.44273    2041.9261   -571.61532    6.8152193    6.2035203    22.767367    2.6904555  -0.28904041    0.1623355    1552.0271    1785.7852    2787.9661 
    9100    282.35357    3534.4024   -571.66869    6.7814596    6.1970084     22.85246    2.7578525  -0.11982967   0.12252366    225.65585    13237.786   -2860.2345 
    9200    296.56298   -13088.869   -571.61888    6.8715443    6.2651489    22.792116    2.9054063   0.16060148 -0.094763867    -22779.31   -10837.882   -5649.4138 
    9300     313.3951   -1545.0238   -571.57492    6.8332725    6.2354284    22.619805    2.9202915   0.36302774  -0.21321384   -4709.6053    1038.8242   -964.29035 
    9400    269.71151   -5196.1942   -571.67688     6.800214    6.2380106    22.806558    2.7866766    0.6590576  -0.17421617    -525.1821   -6662.6715    -8400.729 
    9500    266.08976   -4335.8723   -571.54433    6.8006793    6.2305604    22.846584    2.6428357   0.85877056 -0.077652546    2610.8473   -10494.351   -5124.1131 
    9600    257.88937   -4493.6587   -571.53322    6.8110185    6.2065897    22.613726    2.6429732   0.74574363   0.20526629   -7976.4658    -13117.08      7612.57 
    9700    282.28853   -15365.598   -571.53868    6.8896053     6.217883    22.741976    2.7844705   0.35439008   0.58648973   -22465.076   -9628.4595   -14003.257 
    9800    284.15658   -9138.1102   -571.45255    6.8522797    6.2168051    22.744071    2.8940987 -0.0010534208   0.61097046   -19069.606   -2633.0866   -5711.6386 
    9900    303.97355    13422.207   -571.46364    6.7979758    6.2300333     22.83007    2.8904833  -0.16104389   0.15738195    23415.712    3357.8643    13493.045 
   10000    264.17107    3487.6658   -571.47302    6.8442414      6.22575    22.937271    2.8082733 -0.075218909  -0.49425569    6935.6783   -4101.8251    7629.1441 
   10100    289.25983   -3705.6771   -571.37172    6.8543026    6.1683761    22.755284    2.6691717  0.097206879   -1.0296814   -2816.5072   -7963.4234    -337.1007 
   10130    304.34033    9895.9263   -571.34001     6.843815    6.1499984    22.653968    2.6364745   0.12486621   -1.1230599    11873.675    8082.6535    9731.4501 
Loop time of 2977.74 on 1 procs for 10000 steps with 88 atoms

Performance: 0.290 ns/day, 82.715 hours/ns, 3.358 timesteps/s
99.9% CPU use with 1 MPI tasks x 1 OpenMP threads

MPI task timing breakdown:
Section |  min time  |  avg time  |  max time  |%varavg| %total
---------------------------------------------------------------
Pair    | 2977.3     | 2977.3     | 2977.3     |   0.0 | 99.99
Neigh   | 0.11302    | 0.11302    | 0.11302    |   0.0 |  0.00
Comm    | 0.058525   | 0.058525   | 0.058525   |   0.0 |  0.00
Output  | 0.0057368  | 0.0057368  | 0.0057368  |   0.0 |  0.00
Modify  | 0.20308    | 0.20308    | 0.20308    |   0.0 |  0.01
Other   |            | 0.03208    |            |       |  0.00

Nlocal:        88.0000 ave          88 max          88 min
Histogram: 1 0 0 0 0 0 0 0 0 0
Nghost:        1046.00 ave        1046 max        1046 min
Histogram: 1 0 0 0 0 0 0 0 0 0
Neighs:         0.00000 ave           0 max           0 min
Histogram: 1 0 0 0 0 0 0 0 0 0
FullNghs:      7208.00 ave        7208 max        7208 min
Histogram: 1 0 0 0 0 0 0 0 0 0

Total # of neighbors = 7208
Ave neighs/atom = 81.909091
Neighbor list builds = 206
Dangerous builds = 0

unfix 123

# Compute initial state

variable thermostat equal 0
include potential.mod
# NOTE: This script can be modified for different pair styles
# See in.elastic for more info.

# we must undefine any fix ave/* fix before using reset_timestep
if "$(is_defined(fix,avp))" then "unfix avp"
reset_timestep 0

newton off

# Choose potential
# pair_style	sw
# pair_coeff * * Si.sw Si
pair_style	nequip
pair_coeff	* * tob11_l3-deployed.pth Ca H O Si

atom_modify sort 0 0.0
#kspace_style	ewald 1.0e-6# Setup neighbor style

neighbor 2.0 bin
neigh_modify once no every 1 delay 0 check yes



# Setup output

fix avp all ave/time  ${nevery} ${nrepeat} ${nfreq} c_thermo_press mode vector
fix avp all ave/time  10 ${nrepeat} ${nfreq} c_thermo_press mode vector
fix avp all ave/time  10 10 ${nfreq} c_thermo_press mode vector
fix avp all ave/time  10 10 100 c_thermo_press mode vector

#min_style cg
#minimize 1.0e-15 1.0e-15 100000 100000 #设置能量最小化

thermo		${nthermo}
thermo		100
thermo_style custom step temp pe press f_avp[1] f_avp[2] f_avp[3] f_avp[4] f_avp[5] f_avp[6]
thermo_modify norm no

# Setup MD

timestep ${timestep}
timestep 0.001
fix 4 all nve
if "${thermostat} == 1" then    "fix 5 all langevin ${temp} ${temp} ${tdamp} ${seed}"


run ${nequil}
run 1000
Per MPI rank memory allocation (min/avg/max) = 3.088 | 3.088 | 3.088 Mbytes
Step Temp PotEng Press f_avp[1] f_avp[2] f_avp[3] f_avp[4] f_avp[5] f_avp[6] 
       0    304.34033   -574.76245    9895.9924            0            0            0            0            0            0 
     100    293.64368   -574.63751    15503.575     10170.33    12191.135    17218.944    8284.4761    6729.8451    -1726.266 
     200    268.07845   -574.34247    4188.4369   -596.06482    11238.589     2551.631    6006.4027    6262.8917   -5294.3823 
     300    316.00954   -574.89478    5588.9338    -1113.431    11005.422    5971.0169    5994.6983    5978.0894   -3610.2062 
     400    277.81462   -574.45422    6822.3519    4686.3134    12741.869    9326.4261    8584.0786    7738.5455   -2347.3414 
     500    294.15332   -574.63336    9511.8169    1382.0555    14408.174    8919.0007     5140.685    6428.4678    198.74732 
     600    231.89981   -573.93427    3773.4048    1201.6628    10581.919    5789.4835    8030.3426    10362.027   -3307.0115 
     700    309.72259   -574.82562    2691.4271    4851.3471    10416.222    9407.9542    5184.6477    9484.3686   -5703.3238 
     800    286.34608   -574.55176    2443.3751    5340.7385    12924.251    3887.3379    8121.0443    4948.1586   -4459.3773 
     900    315.97643   -574.89124    8458.3595    -4358.646    10093.989     3837.339    9365.0567    5612.0893   -1242.4773 
    1000    254.48935   -574.18359    16331.742    3515.8514    16096.098    7037.7538    7475.3259   -229.76707   -1832.5812 
Loop time of 101.053 on 1 procs for 1000 steps with 88 atoms

Performance: 0.855 ns/day, 28.070 hours/ns, 9.896 timesteps/s
99.9% CPU use with 1 MPI tasks x 1 OpenMP threads

MPI task timing breakdown:
Section |  min time  |  avg time  |  max time  |%varavg| %total
---------------------------------------------------------------
Pair    | 101.04     | 101.04     | 101.04     |   0.0 | 99.98
Neigh   | 0.007123   | 0.007123   | 0.007123   |   0.0 |  0.01
Comm    | 0.0034411  | 0.0034411  | 0.0034411  |   0.0 |  0.00
Output  | 0.00032854 | 0.00032854 | 0.00032854 |   0.0 |  0.00
Modify  | 0.0028389  | 0.0028389  | 0.0028389  |   0.0 |  0.00
Other   |            | 0.002728   |            |       |  0.00

Nlocal:        88.0000 ave          88 max          88 min
Histogram: 1 0 0 0 0 0 0 0 0 0
Nghost:        1013.00 ave        1013 max        1013 min
Histogram: 1 0 0 0 0 0 0 0 0 0
Neighs:         0.00000 ave           0 max           0 min
Histogram: 1 0 0 0 0 0 0 0 0 0
FullNghs:      7240.00 ave        7240 max        7240 min
Histogram: 1 0 0 0 0 0 0 0 0 0

Total # of neighbors = 7240
Ave neighs/atom = 82.272727
Neighbor list builds = 16
Dangerous builds = 0

if "${adiabatic} == 1" then "variable thermostat equal 0" else "variable thermostat equal 1"
variable thermostat equal 1

print ${thermostat}
print 1
1

include potential.mod
# NOTE: This script can be modified for different pair styles
# See in.elastic for more info.

# we must undefine any fix ave/* fix before using reset_timestep
if "$(is_defined(fix,avp))" then "unfix avp"
unfix avp
reset_timestep 0

newton off

# Choose potential
# pair_style	sw
# pair_coeff * * Si.sw Si
pair_style	nequip
pair_coeff	* * tob11_l3-deployed.pth Ca H O Si

atom_modify sort 0 0.0
#kspace_style	ewald 1.0e-6# Setup neighbor style

neighbor 2.0 bin
neigh_modify once no every 1 delay 0 check yes



# Setup output

fix avp all ave/time  ${nevery} ${nrepeat} ${nfreq} c_thermo_press mode vector
fix avp all ave/time  10 ${nrepeat} ${nfreq} c_thermo_press mode vector
fix avp all ave/time  10 10 ${nfreq} c_thermo_press mode vector
fix avp all ave/time  10 10 100 c_thermo_press mode vector

#min_style cg
#minimize 1.0e-15 1.0e-15 100000 100000 #设置能量最小化

thermo		${nthermo}
thermo		100
thermo_style custom step temp pe press f_avp[1] f_avp[2] f_avp[3] f_avp[4] f_avp[5] f_avp[6]
WARNING: New thermo_style command, previous thermo_modify settings will be lost (src/output.cpp:689)
thermo_modify norm no

# Setup MD

timestep ${timestep}
timestep 0.001
fix 4 all nve
if "${thermostat} == 1" then    "fix 5 all langevin ${temp} ${temp} ${tdamp} ${seed}"
fix 5 all langevin ${temp} ${temp} ${tdamp} ${seed}
fix 5 all langevin 300 ${temp} ${tdamp} ${seed}
fix 5 all langevin 300 300 ${tdamp} ${seed}
fix 5 all langevin 300 300 0.01 ${seed}
fix 5 all langevin 300 300 0.01 123457


run ${nrun}
run 300
Per MPI rank memory allocation (min/avg/max) = 3.088 | 3.088 | 3.088 Mbytes
Step Temp PotEng Press f_avp[1] f_avp[2] f_avp[3] f_avp[4] f_avp[5] f_avp[6] 
       0    254.48935   -574.18359    16331.743            0            0            0            0            0            0 
     100    329.78683   -574.22534    6650.6688    8307.3031     18282.57    10559.731    7166.8136      2359.91   -6765.5862 
     200    290.11085   -574.67493    13286.659    4336.5576    13290.531    11855.554    3416.4194    1758.0956   -6285.8797 
     300    283.36043   -574.07019    9607.6081    992.38933     12311.88    8915.4561    5572.3502   -1555.8038   -5585.6756 
Loop time of 34.2936 on 1 procs for 300 steps with 88 atoms

Performance: 0.756 ns/day, 31.753 hours/ns, 8.748 timesteps/s
99.9% CPU use with 1 MPI tasks x 1 OpenMP threads

MPI task timing breakdown:
Section |  min time  |  avg time  |  max time  |%varavg| %total
---------------------------------------------------------------
Pair    | 34.287     | 34.287     | 34.287     |   0.0 | 99.98
Neigh   | 0.0012581  | 0.0012581  | 0.0012581  |   0.0 |  0.00
Comm    | 0.0010519  | 0.0010519  | 0.0010519  |   0.0 |  0.00
Output  | 0.00010896 | 0.00010896 | 0.00010896 |   0.0 |  0.00
Modify  | 0.0030997  | 0.0030997  | 0.0030997  |   0.0 |  0.01
Other   |            | 0.0008729  |            |       |  0.00

Nlocal:        88.0000 ave          88 max          88 min
Histogram: 1 0 0 0 0 0 0 0 0 0
Nghost:        1022.00 ave        1022 max        1022 min
Histogram: 1 0 0 0 0 0 0 0 0 0
Neighs:         0.00000 ave           0 max           0 min
Histogram: 1 0 0 0 0 0 0 0 0 0
FullNghs:      7242.00 ave        7242 max        7242 min
Histogram: 1 0 0 0 0 0 0 0 0 0

Total # of neighbors = 7242
Ave neighs/atom = 82.295455
Neighbor list builds = 3
Dangerous builds = 0

variable pxx0 equal f_avp[1]
variable pyy0 equal f_avp[2]
variable pzz0 equal f_avp[3]
variable pxy0 equal f_avp[4]
variable pxz0 equal f_avp[5]
variable pyz0 equal f_avp[6]

variable tmp equal lx
variable lx0 equal ${tmp}
variable lx0 equal 6.84381504221731
variable tmp equal ly
variable ly0 equal ${tmp}
variable ly0 equal 6.14999836103117
variable tmp equal lz
variable lz0 equal ${tmp}
variable lz0 equal 22.6539682924997

# These formulas define the derivatives w.r.t. strain components
# Constants uses $, variables use v_
variable d1 equal -(v_pxx1-${pxx0})/(v_delta/v_len0)*${cfac}
variable d1 equal -(v_pxx1-992.389333050142)/(v_delta/v_len0)*${cfac}
variable d1 equal -(v_pxx1-992.389333050142)/(v_delta/v_len0)*0.0001
variable d2 equal -(v_pyy1-${pyy0})/(v_delta/v_len0)*${cfac}
variable d2 equal -(v_pyy1-12311.8803372596)/(v_delta/v_len0)*${cfac}
variable d2 equal -(v_pyy1-12311.8803372596)/(v_delta/v_len0)*0.0001
variable d3 equal -(v_pzz1-${pzz0})/(v_delta/v_len0)*${cfac}
variable d3 equal -(v_pzz1-8915.45611766425)/(v_delta/v_len0)*${cfac}
variable d3 equal -(v_pzz1-8915.45611766425)/(v_delta/v_len0)*0.0001
variable d4 equal -(v_pyz1-${pyz0})/(v_delta/v_len0)*${cfac}
variable d4 equal -(v_pyz1--5585.67560706358)/(v_delta/v_len0)*${cfac}
variable d4 equal -(v_pyz1--5585.67560706358)/(v_delta/v_len0)*0.0001
variable d5 equal -(v_pxz1-${pxz0})/(v_delta/v_len0)*${cfac}
variable d5 equal -(v_pxz1--1555.80382503666)/(v_delta/v_len0)*${cfac}
variable d5 equal -(v_pxz1--1555.80382503666)/(v_delta/v_len0)*0.0001
variable d6 equal -(v_pxy1-${pxy0})/(v_delta/v_len0)*${cfac}
variable d6 equal -(v_pxy1-5572.35016854694)/(v_delta/v_len0)*${cfac}
variable d6 equal -(v_pxy1-5572.35016854694)/(v_delta/v_len0)*0.0001

# Write restart
write_restart restart.equil
System init for write_restart ...

# uxx Perturbation

variable dir equal 1
include displace.mod
# NOTE: This script should not need to be
# modified. See in.elastic for more info.
#
# Find which reference length to use

if "${dir} == 1" then    "variable len0 equal ${lx0}"
variable len0 equal ${lx0}
variable len0 equal 6.84381504221731
if "${dir} == 2" then    "variable len0 equal ${ly0}"
if "${dir} == 3" then    "variable len0 equal ${lz0}"
if "${dir} == 4" then    "variable len0 equal ${lz0}"
if "${dir} == 5" then    "variable len0 equal ${lz0}"
if "${dir} == 6" then    "variable len0 equal ${ly0}"

# Reset box and simulation parameters

clear
OMP_NUM_THREADS environment is not set. Defaulting to 1 thread. (src/comm.cpp:98)
  using 1 OpenMP thread(s) per MPI task
box tilt large
read_restart restart.equil
Reading restart file ...
  restart file = 29 Sep 2021, LAMMPS = 29 Sep 2021
  restoring atom style atomic from restart
  triclinic box = (-0.020057521 0.017408306 -0.12426097) to (6.8237575 6.1674067 22.529707) with tilt (2.6364745 -1.1230599 0.12486621)
  1 by 1 by 1 MPI processor grid
  pair style nequip stores no restart info
  88 atoms
  read_restart CPU = 0.000 seconds
include potential.mod
# NOTE: This script can be modified for different pair styles
# See in.elastic for more info.

# we must undefine any fix ave/* fix before using reset_timestep
if "$(is_defined(fix,avp))" then "unfix avp"
reset_timestep 0

newton off

# Choose potential
# pair_style	sw
# pair_coeff * * Si.sw Si
pair_style	nequip
pair_coeff	* * tob11_l3-deployed.pth Ca H O Si

atom_modify sort 0 0.0
#kspace_style	ewald 1.0e-6# Setup neighbor style

neighbor 2.0 bin
neigh_modify once no every 1 delay 0 check yes



# Setup output

fix avp all ave/time  ${nevery} ${nrepeat} ${nfreq} c_thermo_press mode vector
fix avp all ave/time  10 ${nrepeat} ${nfreq} c_thermo_press mode vector
fix avp all ave/time  10 10 ${nfreq} c_thermo_press mode vector
fix avp all ave/time  10 10 100 c_thermo_press mode vector

#min_style cg
#minimize 1.0e-15 1.0e-15 100000 100000 #设置能量最小化

thermo		${nthermo}
thermo		100
thermo_style custom step temp pe press f_avp[1] f_avp[2] f_avp[3] f_avp[4] f_avp[5] f_avp[6]
thermo_modify norm no

# Setup MD

timestep ${timestep}
timestep 0.001
fix 4 all nve
if "${thermostat} == 1" then    "fix 5 all langevin ${temp} ${temp} ${tdamp} ${seed}"
fix 5 all langevin ${temp} ${temp} ${tdamp} ${seed}
fix 5 all langevin 300 ${temp} ${tdamp} ${seed}
fix 5 all langevin 300 300 ${tdamp} ${seed}
fix 5 all langevin 300 300 0.01 ${seed}
fix 5 all langevin 300 300 0.01 123457



# Negative deformation

variable delta equal -${up}*${len0}
variable delta equal -0.02*${len0}
variable delta equal -0.02*6.84381504221731
variable deltaxy equal -${up}*xy
variable deltaxy equal -0.02*xy
variable deltaxz equal -${up}*xz
variable deltaxz equal -0.02*xz
variable deltayz equal -${up}*yz
variable deltayz equal -0.02*yz
if "${dir} == 1" then    "change_box all x delta 0 ${delta} xy delta ${deltaxy} xz delta ${deltaxz} remap units box"
change_box all x delta 0 ${delta} xy delta ${deltaxy} xz delta ${deltaxz} remap units box
change_box all x delta 0 -0.136876300844346 xy delta ${deltaxy} xz delta ${deltaxz} remap units box
change_box all x delta 0 -0.136876300844346 xy delta -0.0527294908948237 xz delta ${deltaxz} remap units box
change_box all x delta 0 -0.136876300844346 xy delta -0.0527294908948237 xz delta 0.0224611984159612 remap units box
Changing box ...
  triclinic box = (-0.020057521 0.017408306 -0.12426097) to (6.6868812 6.1674067 22.529707) with tilt (2.6364745 -1.1230599 0.12486621)
  triclinic box = (-0.020057521 0.017408306 -0.12426097) to (6.6868812 6.1674067 22.529707) with tilt (2.5837451 -1.1230599 0.12486621)
  triclinic box = (-0.020057521 0.017408306 -0.12426097) to (6.6868812 6.1674067 22.529707) with tilt (2.5837451 -1.1005987 0.12486621)
if "${dir} == 2" then    "change_box all y delta 0 ${delta} yz delta ${deltayz} remap units box"
if "${dir} == 3" then    "change_box all z delta 0 ${delta} remap units box"
if "${dir} == 4" then    "change_box all yz delta ${delta} remap units box"
if "${dir} == 5" then    "change_box all xz delta ${delta} remap units box"
if "${dir} == 6" then    "change_box all xy delta ${delta} remap units box"

# Run MD

run ${nequil}
run 1000
Neighbor list info ...
  update every 1 steps, delay 0 steps, check yes
  max neighbors/atom: 2000, page size: 100000
  master list distance cutoff = 6
  ghost atom cutoff = 6
  binsize = 3, bins = 4 3 8
  1 neighbor lists, perpetual/occasional/extra = 1 0 0
  (1) pair nequip, perpetual
      attributes: full, newton off
      pair build: full/bin/atomonly
      stencil: full/bin/3d
      bin: standard
Per MPI rank memory allocation (min/avg/max) = 2.963 | 2.963 | 2.963 Mbytes
Step Temp PotEng Press f_avp[1] f_avp[2] f_avp[3] f_avp[4] f_avp[5] f_avp[6] 
       0    283.36043   -573.75592    41062.127            0            0            0            0            0            0 
     100    317.63819   -574.14569    27954.665    34610.452    34349.969    25999.465      5911.25    4375.9785   -3925.9701 
     200    288.36302   -574.56067    25376.557    27158.685    26349.195    19127.442     2536.289    5405.9978   -4804.2111 
     300     283.0275   -573.99683    21201.321    23334.042    23986.349    13793.783    3552.8225    1051.8382   -4320.4993 
     400    303.62625   -574.56519    17234.099    22204.515     24857.97    14114.575     8161.364    1665.1264   -3701.3942 
     500    327.57819   -574.15936    21148.016    23002.104    31375.082    14384.028    4892.6932    1522.2564   -1349.6439 
     600    318.63249   -574.65179    21512.932     27136.52    23652.401    18801.632   -1570.7508     1949.702   -4557.1679 
     700    303.41716   -574.55688    24043.329    27873.776    21366.068    11337.029    4515.9119    2934.7343   -5584.7139 
     800    265.47769   -574.17706    16925.459    31021.734    28421.851    19301.709    8260.2437    1799.5382   -3931.4805 
     900    329.14382   -574.69342    20615.841    26601.865    25321.473    9134.7153    7174.9105    5613.5584   -2656.7768 
    1000    342.98004   -573.87067    13593.647    27560.212    28256.411     20202.35    4956.5507    5976.6321   -2302.1522 
Loop time of 103.583 on 1 procs for 1000 steps with 88 atoms

Performance: 0.834 ns/day, 28.773 hours/ns, 9.654 timesteps/s
99.9% CPU use with 1 MPI tasks x 1 OpenMP threads

MPI task timing breakdown:
Section |  min time  |  avg time  |  max time  |%varavg| %total
---------------------------------------------------------------
Pair    | 103.56     | 103.56     | 103.56     |   0.0 | 99.98
Neigh   | 0.0017383  | 0.0017383  | 0.0017383  |   0.0 |  0.00
Comm    | 0.0035152  | 0.0035152  | 0.0035152  |   0.0 |  0.00
Output  | 0.00037599 | 0.00037599 | 0.00037599 |   0.0 |  0.00
Modify  | 0.01036    | 0.01036    | 0.01036    |   0.0 |  0.01
Other   |            | 0.002802   |            |       |  0.00

Nlocal:        88.0000 ave          88 max          88 min
Histogram: 1 0 0 0 0 0 0 0 0 0
Nghost:        1055.00 ave        1055 max        1055 min
Histogram: 1 0 0 0 0 0 0 0 0 0
Neighs:         0.00000 ave           0 max           0 min
Histogram: 1 0 0 0 0 0 0 0 0 0
FullNghs:      7370.00 ave        7370 max        7370 min
Histogram: 1 0 0 0 0 0 0 0 0 0

Total # of neighbors = 7370
Ave neighs/atom = 83.750000
Neighbor list builds = 4
Dangerous builds = 0
include potential.mod
# NOTE: This script can be modified for different pair styles
# See in.elastic for more info.

# we must undefine any fix ave/* fix before using reset_timestep
if "$(is_defined(fix,avp))" then "unfix avp"
unfix avp
reset_timestep 0

newton off

# Choose potential
# pair_style	sw
# pair_coeff * * Si.sw Si
pair_style	nequip
pair_coeff	* * tob11_l3-deployed.pth Ca H O Si

atom_modify sort 0 0.0
#kspace_style	ewald 1.0e-6# Setup neighbor style

neighbor 2.0 bin
neigh_modify once no every 1 delay 0 check yes



# Setup output

fix avp all ave/time  ${nevery} ${nrepeat} ${nfreq} c_thermo_press mode vector
fix avp all ave/time  10 ${nrepeat} ${nfreq} c_thermo_press mode vector
fix avp all ave/time  10 10 ${nfreq} c_thermo_press mode vector
fix avp all ave/time  10 10 100 c_thermo_press mode vector

#min_style cg
#minimize 1.0e-15 1.0e-15 100000 100000 #设置能量最小化

thermo		${nthermo}
thermo		100
thermo_style custom step temp pe press f_avp[1] f_avp[2] f_avp[3] f_avp[4] f_avp[5] f_avp[6]
WARNING: New thermo_style command, previous thermo_modify settings will be lost (src/output.cpp:689)
thermo_modify norm no

# Setup MD

timestep ${timestep}
timestep 0.001
fix 4 all nve
if "${thermostat} == 1" then    "fix 5 all langevin ${temp} ${temp} ${tdamp} ${seed}"
fix 5 all langevin ${temp} ${temp} ${tdamp} ${seed}
fix 5 all langevin 300 ${temp} ${tdamp} ${seed}
fix 5 all langevin 300 300 ${tdamp} ${seed}
fix 5 all langevin 300 300 0.01 ${seed}
fix 5 all langevin 300 300 0.01 123457


run ${nrun}
run 300
Per MPI rank memory allocation (min/avg/max) = 2.963 | 2.963 | 2.963 Mbytes
Step Temp PotEng Press f_avp[1] f_avp[2] f_avp[3] f_avp[4] f_avp[5] f_avp[6] 
       0    342.98004   -573.87067    13593.833            0            0            0            0            0            0 
     100    319.68043   -574.08698    24248.713    28545.675    33818.846    13412.741    7642.0403    6798.5377   -4960.4601 
     200    299.56013   -574.58069    21626.985    25432.867    24855.648    13329.583    2267.1573     4705.828   -3687.8798 
     300    281.28091   -573.96832    21093.649      23706.4    22488.241    11611.542    1908.6759   -23.451541    -3837.042 
Loop time of 35.1162 on 1 procs for 300 steps with 88 atoms

Performance: 0.738 ns/day, 32.515 hours/ns, 8.543 timesteps/s
99.9% CPU use with 1 MPI tasks x 1 OpenMP threads

MPI task timing breakdown:
Section |  min time  |  avg time  |  max time  |%varavg| %total
---------------------------------------------------------------
Pair    | 35.111     | 35.111     | 35.111     |   0.0 | 99.98
Neigh   | 0.00043249 | 0.00043249 | 0.00043249 |   0.0 |  0.00
Comm    | 0.0010197  | 0.0010197  | 0.0010197  |   0.0 |  0.00
Output  | 0.00012016 | 0.00012016 | 0.00012016 |   0.0 |  0.00
Modify  | 0.0029936  | 0.0029936  | 0.0029936  |   0.0 |  0.01
Other   |            | 0.0008688  |            |       |  0.00

Nlocal:        88.0000 ave          88 max          88 min
Histogram: 1 0 0 0 0 0 0 0 0 0
Nghost:        1040.00 ave        1040 max        1040 min
Histogram: 1 0 0 0 0 0 0 0 0 0
Neighs:         0.00000 ave           0 max           0 min
Histogram: 1 0 0 0 0 0 0 0 0 0
FullNghs:      7404.00 ave        7404 max        7404 min
Histogram: 1 0 0 0 0 0 0 0 0 0

Total # of neighbors = 7404
Ave neighs/atom = 84.136364
Neighbor list builds = 1
Dangerous builds = 0

# Obtain new stress tensor

variable pxx1 equal f_avp[1]
variable pyy1 equal f_avp[2]
variable pzz1 equal f_avp[3]
variable pxy1 equal f_avp[4]
variable pxz1 equal f_avp[5]
variable pyz1 equal f_avp[6]

# Compute elastic constant from pressure tensor

variable C1neg equal ${d1}
variable C1neg equal 113.5700557922
variable C2neg equal ${d2}
variable C2neg equal 50.8818009651926
variable C3neg equal ${d3}
variable C3neg equal 13.4804301559278
variable C4neg equal ${d4}
variable C4neg equal 8.74316823260651
variable C5neg equal ${d5}
variable C5neg equal 7.6617614189972
variable C6neg equal ${d6}
variable C6neg equal -18.3183715842529

# Reset box and simulation parameters

clear
OMP_NUM_THREADS environment is not set. Defaulting to 1 thread. (src/comm.cpp:98)
  using 1 OpenMP thread(s) per MPI task
box tilt large
read_restart restart.equil
Reading restart file ...
  restart file = 29 Sep 2021, LAMMPS = 29 Sep 2021
  restoring atom style atomic from restart
  triclinic box = (-0.020057521 0.017408306 -0.12426097) to (6.8237575 6.1674067 22.529707) with tilt (2.6364745 -1.1230599 0.12486621)
  1 by 1 by 1 MPI processor grid
  pair style nequip stores no restart info
  88 atoms
  read_restart CPU = 0.000 seconds
include potential.mod
# NOTE: This script can be modified for different pair styles
# See in.elastic for more info.

# we must undefine any fix ave/* fix before using reset_timestep
if "$(is_defined(fix,avp))" then "unfix avp"
reset_timestep 0

newton off

# Choose potential
# pair_style	sw
# pair_coeff * * Si.sw Si
pair_style	nequip
pair_coeff	* * tob11_l3-deployed.pth Ca H O Si

atom_modify sort 0 0.0
#kspace_style	ewald 1.0e-6# Setup neighbor style

neighbor 2.0 bin
neigh_modify once no every 1 delay 0 check yes



# Setup output

fix avp all ave/time  ${nevery} ${nrepeat} ${nfreq} c_thermo_press mode vector
fix avp all ave/time  10 ${nrepeat} ${nfreq} c_thermo_press mode vector
fix avp all ave/time  10 10 ${nfreq} c_thermo_press mode vector
fix avp all ave/time  10 10 100 c_thermo_press mode vector

#min_style cg
#minimize 1.0e-15 1.0e-15 100000 100000 #设置能量最小化

thermo		${nthermo}
thermo		100
thermo_style custom step temp pe press f_avp[1] f_avp[2] f_avp[3] f_avp[4] f_avp[5] f_avp[6]
thermo_modify norm no

# Setup MD

timestep ${timestep}
timestep 0.001
fix 4 all nve
if "${thermostat} == 1" then    "fix 5 all langevin ${temp} ${temp} ${tdamp} ${seed}"
fix 5 all langevin ${temp} ${temp} ${tdamp} ${seed}
fix 5 all langevin 300 ${temp} ${tdamp} ${seed}
fix 5 all langevin 300 300 ${tdamp} ${seed}
fix 5 all langevin 300 300 0.01 ${seed}
fix 5 all langevin 300 300 0.01 123457



# Positive deformation

variable delta equal ${up}*${len0}
variable delta equal 0.02*${len0}
variable delta equal 0.02*6.84381504221731
variable deltaxy equal ${up}*xy
variable deltaxy equal 0.02*xy
variable deltaxz equal ${up}*xz
variable deltaxz equal 0.02*xz
variable deltayz equal ${up}*yz
variable deltayz equal 0.02*yz
if "${dir} == 1" then    "change_box all x delta 0 ${delta} xy delta ${deltaxy} xz delta ${deltaxz} remap units box"
change_box all x delta 0 ${delta} xy delta ${deltaxy} xz delta ${deltaxz} remap units box
change_box all x delta 0 0.136876300844346 xy delta ${deltaxy} xz delta ${deltaxz} remap units box
change_box all x delta 0 0.136876300844346 xy delta 0.0527294908948237 xz delta ${deltaxz} remap units box
change_box all x delta 0 0.136876300844346 xy delta 0.0527294908948237 xz delta -0.0224611984159612 remap units box
Changing box ...
  triclinic box = (-0.020057521 0.017408306 -0.12426097) to (6.9606338 6.1674067 22.529707) with tilt (2.6364745 -1.1230599 0.12486621)
  triclinic box = (-0.020057521 0.017408306 -0.12426097) to (6.9606338 6.1674067 22.529707) with tilt (2.6892040 -1.1230599 0.12486621)
  triclinic box = (-0.020057521 0.017408306 -0.12426097) to (6.9606338 6.1674067 22.529707) with tilt (2.6892040 -1.1455211 0.12486621)
if "${dir} == 2" then    "change_box all y delta 0 ${delta} yz delta ${deltayz} remap units box"
if "${dir} == 3" then    "change_box all z delta 0 ${delta} remap units box"
if "${dir} == 4" then    "change_box all yz delta ${delta} remap units box"
if "${dir} == 5" then    "change_box all xz delta ${delta} remap units box"
if "${dir} == 6" then    "change_box all xy delta ${delta} remap units box"

# Run MD

run ${nequil}
run 1000
Neighbor list info ...
  update every 1 steps, delay 0 steps, check yes
  max neighbors/atom: 2000, page size: 100000
  master list distance cutoff = 6
  ghost atom cutoff = 6
  binsize = 3, bins = 4 3 8
  1 neighbor lists, perpetual/occasional/extra = 1 0 0
  (1) pair nequip, perpetual
      attributes: full, newton off
      pair build: full/bin/atomonly
      stencil: full/bin/3d
      bin: standard
Per MPI rank memory allocation (min/avg/max) = 2.962 | 2.962 | 2.962 Mbytes
Step Temp PotEng Press f_avp[1] f_avp[2] f_avp[3] f_avp[4] f_avp[5] f_avp[6] 
       0    283.36043   -573.73865   -18434.296            0            0            0            0            0            0 
     100    316.26458   -574.03821   -2203.1062   -14550.986     9459.586    8187.9221    8872.7174    4075.6515   -4483.6085 
     200    285.71246   -574.49475    -843.5093    -17160.91    3230.9519    4159.3749    4472.5951    4634.1365    -5641.703 
     300    281.18197   -573.87341    -5199.077   -20920.768    1028.7742   -393.05488    4812.5642    333.10132   -4907.1125 
     400     303.6837   -574.42804   -8797.1556    -18934.33    3198.8236     949.3833    9841.8207    1166.2708   -4219.3441 
     500    327.48428   -573.90289   -3802.1548   -19027.745    10520.299    2637.9899    6607.0558    947.37878   -2942.0909 
     600    318.95975   -574.57996   -5417.9652   -18922.703     2701.142    5735.6297    305.16056    2172.2527   -5752.9971 
     700    311.72382   -574.58771   -4371.0279   -18168.757     628.2301   -2221.1362    5750.4687    3011.3016   -5833.5954 
     800    262.71294   -574.13458   -6081.3137   -11562.315    6511.2534    7231.9313    9078.3133    760.41576   -5954.0743 
     900    331.81151   -574.70593   -5755.0233   -14433.765     4453.892   -2592.2343     7764.553    3344.9408   -4265.4376 
    1000    338.52228   -573.77405   -12097.885   -15192.081    7040.4752     5551.587    6444.8103    4425.2428   -4526.7272 
Loop time of 99.1614 on 1 procs for 1000 steps with 88 atoms

Performance: 0.871 ns/day, 27.545 hours/ns, 10.085 timesteps/s
99.9% CPU use with 1 MPI tasks x 1 OpenMP threads

MPI task timing breakdown:
Section |  min time  |  avg time  |  max time  |%varavg| %total
---------------------------------------------------------------
Pair    | 99.141     | 99.141     | 99.141     |   0.0 | 99.98
Neigh   | 0.0034628  | 0.0034628  | 0.0034628  |   0.0 |  0.00
Comm    | 0.0035655  | 0.0035655  | 0.0035655  |   0.0 |  0.00
Output  | 0.00035691 | 0.00035691 | 0.00035691 |   0.0 |  0.00
Modify  | 0.010362   | 0.010362   | 0.010362   |   0.0 |  0.01
Other   |            | 0.002851   |            |       |  0.00

Nlocal:        88.0000 ave          88 max          88 min
Histogram: 1 0 0 0 0 0 0 0 0 0
Nghost:        1013.00 ave        1013 max        1013 min
Histogram: 1 0 0 0 0 0 0 0 0 0
Neighs:         0.00000 ave           0 max           0 min
Histogram: 1 0 0 0 0 0 0 0 0 0
FullNghs:      7044.00 ave        7044 max        7044 min
Histogram: 1 0 0 0 0 0 0 0 0 0

Total # of neighbors = 7044
Ave neighs/atom = 80.045455
Neighbor list builds = 8
Dangerous builds = 0
include potential.mod
# NOTE: This script can be modified for different pair styles
# See in.elastic for more info.

# we must undefine any fix ave/* fix before using reset_timestep
if "$(is_defined(fix,avp))" then "unfix avp"
unfix avp
reset_timestep 0

newton off

# Choose potential
# pair_style	sw
# pair_coeff * * Si.sw Si
pair_style	nequip
pair_coeff	* * tob11_l3-deployed.pth Ca H O Si

atom_modify sort 0 0.0
#kspace_style	ewald 1.0e-6# Setup neighbor style

neighbor 2.0 bin
neigh_modify once no every 1 delay 0 check yes



# Setup output

fix avp all ave/time  ${nevery} ${nrepeat} ${nfreq} c_thermo_press mode vector
fix avp all ave/time  10 ${nrepeat} ${nfreq} c_thermo_press mode vector
fix avp all ave/time  10 10 ${nfreq} c_thermo_press mode vector
fix avp all ave/time  10 10 100 c_thermo_press mode vector

#min_style cg
#minimize 1.0e-15 1.0e-15 100000 100000 #设置能量最小化

thermo		${nthermo}
thermo		100
thermo_style custom step temp pe press f_avp[1] f_avp[2] f_avp[3] f_avp[4] f_avp[5] f_avp[6]
WARNING: New thermo_style command, previous thermo_modify settings will be lost (src/output.cpp:689)
thermo_modify norm no

# Setup MD

timestep ${timestep}
timestep 0.001
fix 4 all nve
if "${thermostat} == 1" then    "fix 5 all langevin ${temp} ${temp} ${tdamp} ${seed}"
fix 5 all langevin ${temp} ${temp} ${tdamp} ${seed}
fix 5 all langevin 300 ${temp} ${tdamp} ${seed}
fix 5 all langevin 300 300 ${tdamp} ${seed}
fix 5 all langevin 300 300 0.01 ${seed}
fix 5 all langevin 300 300 0.01 123457


run ${nrun}
run 300
Per MPI rank memory allocation (min/avg/max) = 2.962 | 2.962 | 2.962 Mbytes
Step Temp PotEng Press f_avp[1] f_avp[2] f_avp[3] f_avp[4] f_avp[5] f_avp[6] 
       0    338.52228   -573.77405   -12097.955            0            0            0            0            0            0 
     100    317.63496   -573.99634   -2632.2649   -13803.615    11537.794   -623.82222     8429.026    5694.4396   -7047.0561 
     200    294.58163   -574.62036   -1853.6911   -16711.033    4328.3101    1938.4851    3957.3003    3314.3708   -6320.0142 
     300    285.20503   -573.91388   -3910.5646   -17409.292    401.42269   -780.93246    2855.3382   -47.985696   -5579.5336 
Loop time of 33.743 on 1 procs for 300 steps with 88 atoms

Performance: 0.768 ns/day, 31.244 hours/ns, 8.891 timesteps/s
99.9% CPU use with 1 MPI tasks x 1 OpenMP threads

MPI task timing breakdown:
Section |  min time  |  avg time  |  max time  |%varavg| %total
---------------------------------------------------------------
Pair    | 33.737     | 33.737     | 33.737     |   0.0 | 99.98
Neigh   | 0.00043797 | 0.00043797 | 0.00043797 |   0.0 |  0.00
Comm    | 0.0010176  | 0.0010176  | 0.0010176  |   0.0 |  0.00
Output  | 0.00010705 | 0.00010705 | 0.00010705 |   0.0 |  0.00
Modify  | 0.0031056  | 0.0031056  | 0.0031056  |   0.0 |  0.01
Other   |            | 0.0008657  |            |       |  0.00

Nlocal:        88.0000 ave          88 max          88 min
Histogram: 1 0 0 0 0 0 0 0 0 0
Nghost:        998.000 ave         998 max         998 min
Histogram: 1 0 0 0 0 0 0 0 0 0
Neighs:         0.00000 ave           0 max           0 min
Histogram: 1 0 0 0 0 0 0 0 0 0
FullNghs:      7044.00 ave        7044 max        7044 min
Histogram: 1 0 0 0 0 0 0 0 0 0

Total # of neighbors = 7044
Ave neighs/atom = 80.045455
Neighbor list builds = 1
Dangerous builds = 0

# Obtain new stress tensor

variable pxx1 equal f_avp[1]
variable pyy1 equal f_avp[2]
variable pzz1 equal f_avp[3]
variable pxy1 equal f_avp[4]
variable pxz1 equal f_avp[5]
variable pyz1 equal f_avp[6]

# Compute elastic constant from pressure tensor

variable C1pos equal ${d1}
variable C1pos equal 92.0084085098299
variable C2pos equal ${d2}
variable C2pos equal 59.5522882294287
variable C3pos equal ${d3}
variable C3pos equal 48.4819428951275
variable C4pos equal ${d4}
variable C4pos equal -0.0307099066523506
variable C5pos equal ${d5}
variable C5pos equal -7.53909064624033
variable C6pos equal ${d6}
variable C6pos equal 13.5850598967662

# Combine positive and negative

variable C1${dir} equal 0.5*(${C1neg}+${C1pos})
variable C11 equal 0.5*(${C1neg}+${C1pos})
variable C11 equal 0.5*(113.5700557922+${C1pos})
variable C11 equal 0.5*(113.5700557922+92.0084085098299)
variable C2${dir} equal 0.5*(${C2neg}+${C2pos})
variable C21 equal 0.5*(${C2neg}+${C2pos})
variable C21 equal 0.5*(50.8818009651926+${C2pos})
variable C21 equal 0.5*(50.8818009651926+59.5522882294287)
variable C3${dir} equal 0.5*(${C3neg}+${C3pos})
variable C31 equal 0.5*(${C3neg}+${C3pos})
variable C31 equal 0.5*(13.4804301559278+${C3pos})
variable C31 equal 0.5*(13.4804301559278+48.4819428951275)
variable C4${dir} equal 0.5*(${C4neg}+${C4pos})
variable C41 equal 0.5*(${C4neg}+${C4pos})
variable C41 equal 0.5*(8.74316823260651+${C4pos})
variable C41 equal 0.5*(8.74316823260651+-0.0307099066523506)
variable C5${dir} equal 0.5*(${C5neg}+${C5pos})
variable C51 equal 0.5*(${C5neg}+${C5pos})
variable C51 equal 0.5*(7.6617614189972+${C5pos})
variable C51 equal 0.5*(7.6617614189972+-7.53909064624033)
variable C6${dir} equal 0.5*(${C6neg}+${C6pos})
variable C61 equal 0.5*(${C6neg}+${C6pos})
variable C61 equal 0.5*(-18.3183715842529+${C6pos})
variable C61 equal 0.5*(-18.3183715842529+13.5850598967662)

# Delete dir to make sure it is not reused

variable dir delete

# uyy Perturbation

variable dir equal 2
include displace.mod
# NOTE: This script should not need to be
# modified. See in.elastic for more info.
#
# Find which reference length to use

if "${dir} == 1" then    "variable len0 equal ${lx0}"
if "${dir} == 2" then    "variable len0 equal ${ly0}"
variable len0 equal ${ly0}
variable len0 equal 6.14999836103117
if "${dir} == 3" then    "variable len0 equal ${lz0}"
if "${dir} == 4" then    "variable len0 equal ${lz0}"
if "${dir} == 5" then    "variable len0 equal ${lz0}"
if "${dir} == 6" then    "variable len0 equal ${ly0}"

# Reset box and simulation parameters

clear
OMP_NUM_THREADS environment is not set. Defaulting to 1 thread. (src/comm.cpp:98)
  using 1 OpenMP thread(s) per MPI task
box tilt large
read_restart restart.equil
Reading restart file ...
  restart file = 29 Sep 2021, LAMMPS = 29 Sep 2021
  restoring atom style atomic from restart
  triclinic box = (-0.020057521 0.017408306 -0.12426097) to (6.8237575 6.1674067 22.529707) with tilt (2.6364745 -1.1230599 0.12486621)
  1 by 1 by 1 MPI processor grid
  pair style nequip stores no restart info
  88 atoms
  read_restart CPU = 0.000 seconds
include potential.mod
# NOTE: This script can be modified for different pair styles
# See in.elastic for more info.

# we must undefine any fix ave/* fix before using reset_timestep
if "$(is_defined(fix,avp))" then "unfix avp"
reset_timestep 0

newton off

# Choose potential
# pair_style	sw
# pair_coeff * * Si.sw Si
pair_style	nequip
pair_coeff	* * tob11_l3-deployed.pth Ca H O Si

atom_modify sort 0 0.0
#kspace_style	ewald 1.0e-6# Setup neighbor style

neighbor 2.0 bin
neigh_modify once no every 1 delay 0 check yes



# Setup output

fix avp all ave/time  ${nevery} ${nrepeat} ${nfreq} c_thermo_press mode vector
fix avp all ave/time  10 ${nrepeat} ${nfreq} c_thermo_press mode vector
fix avp all ave/time  10 10 ${nfreq} c_thermo_press mode vector
fix avp all ave/time  10 10 100 c_thermo_press mode vector

#min_style cg
#minimize 1.0e-15 1.0e-15 100000 100000 #设置能量最小化

thermo		${nthermo}
thermo		100
thermo_style custom step temp pe press f_avp[1] f_avp[2] f_avp[3] f_avp[4] f_avp[5] f_avp[6]
thermo_modify norm no

# Setup MD

timestep ${timestep}
timestep 0.001
fix 4 all nve
if "${thermostat} == 1" then    "fix 5 all langevin ${temp} ${temp} ${tdamp} ${seed}"
fix 5 all langevin ${temp} ${temp} ${tdamp} ${seed}
fix 5 all langevin 300 ${temp} ${tdamp} ${seed}
fix 5 all langevin 300 300 ${tdamp} ${seed}
fix 5 all langevin 300 300 0.01 ${seed}
fix 5 all langevin 300 300 0.01 123457



# Negative deformation

variable delta equal -${up}*${len0}
variable delta equal -0.02*${len0}
variable delta equal -0.02*6.14999836103117
variable deltaxy equal -${up}*xy
variable deltaxy equal -0.02*xy
variable deltaxz equal -${up}*xz
variable deltaxz equal -0.02*xz
variable deltayz equal -${up}*yz
variable deltayz equal -0.02*yz
if "${dir} == 1" then    "change_box all x delta 0 ${delta} xy delta ${deltaxy} xz delta ${deltaxz} remap units box"
if "${dir} == 2" then    "change_box all y delta 0 ${delta} yz delta ${deltayz} remap units box"
change_box all y delta 0 ${delta} yz delta ${deltayz} remap units box
change_box all y delta 0 -0.122999967220623 yz delta ${deltayz} remap units box
change_box all y delta 0 -0.122999967220623 yz delta -0.00249732425116545 remap units box
Changing box ...
  triclinic box = (-0.020057521 0.017408306 -0.12426097) to (6.8237575 6.0444067 22.529707) with tilt (2.6364745 -1.1230599 0.12486621)
  triclinic box = (-0.020057521 0.017408306 -0.12426097) to (6.8237575 6.0444067 22.529707) with tilt (2.6364745 -1.1230599 0.12236889)
if "${dir} == 3" then    "change_box all z delta 0 ${delta} remap units box"
if "${dir} == 4" then    "change_box all yz delta ${delta} remap units box"
if "${dir} == 5" then    "change_box all xz delta ${delta} remap units box"
if "${dir} == 6" then    "change_box all xy delta ${delta} remap units box"

# Run MD

run ${nequil}
run 1000
Neighbor list info ...
  update every 1 steps, delay 0 steps, check yes
  max neighbors/atom: 2000, page size: 100000
  master list distance cutoff = 6
  ghost atom cutoff = 6
  binsize = 3, bins = 4 3 8
  1 neighbor lists, perpetual/occasional/extra = 1 0 0
  (1) pair nequip, perpetual
      attributes: full, newton off
      pair build: full/bin/atomonly
      stencil: full/bin/3d
      bin: standard
Per MPI rank memory allocation (min/avg/max) = 2.963 | 2.963 | 2.963 Mbytes
Step Temp PotEng Press f_avp[1] f_avp[2] f_avp[3] f_avp[4] f_avp[5] f_avp[6] 
       0    283.36043   -573.67462    39615.222            0            0            0            0            0            0 
     100    319.35407   -574.01733     29607.23    20810.502    53102.266    28752.441    4654.7181     3889.269    -3182.912 
     200    289.07913    -574.3761    28640.495    14929.006     44583.49    22528.508    1058.7653    4410.8766   -3749.4105 
     300    282.73425   -573.80316    23706.718    10229.471    42282.412    16269.273    2459.1188    290.93093   -3278.8631 
     400    304.95108   -574.39978    18960.605    10611.245    42276.652    16104.636    7077.5665    844.60001   -2765.3117 
     500    328.77085   -573.96777    23854.449    10589.099    47802.694     17212.26    3254.3291    526.09203   -1322.7915 
     600    320.78903   -574.52924    22704.537    13672.547    39450.213    21040.839   -3420.6655    1352.9015   -4230.5916 
     700    301.85274   -574.44727    26164.188    14458.568    37975.255    12729.056    2584.1963    2129.0115   -5500.4899 
     800    267.23225    -574.0354    21485.677     18875.37    46691.991    22483.789    7699.1641    1102.1857   -4378.1099 
     900    325.50437   -574.53925    21629.669    14473.002    42419.686    12050.622    5481.5609    4054.1064   -3206.0262 
    1000    344.15576   -573.74506    15022.788    14496.403     44467.15    23305.801    3166.5006    4687.1755   -2688.4223 
Loop time of 104.209 on 1 procs for 1000 steps with 88 atoms

Performance: 0.829 ns/day, 28.947 hours/ns, 9.596 timesteps/s
99.8% CPU use with 1 MPI tasks x 1 OpenMP threads

MPI task timing breakdown:
Section |  min time  |  avg time  |  max time  |%varavg| %total
---------------------------------------------------------------
Pair    | 104.19     | 104.19     | 104.19     |   0.0 | 99.98
Neigh   | 0.0029581  | 0.0029581  | 0.0029581  |   0.0 |  0.00
Comm    | 0.0035493  | 0.0035493  | 0.0035493  |   0.0 |  0.00
Output  | 0.00041008 | 0.00041008 | 0.00041008 |   0.0 |  0.00
Modify  | 0.010114   | 0.010114   | 0.010114   |   0.0 |  0.01
Other   |            | 0.00282    |            |       |  0.00

Nlocal:        88.0000 ave          88 max          88 min
Histogram: 1 0 0 0 0 0 0 0 0 0
Nghost:        1049.00 ave        1049 max        1049 min
Histogram: 1 0 0 0 0 0 0 0 0 0
Neighs:         0.00000 ave           0 max           0 min
Histogram: 1 0 0 0 0 0 0 0 0 0
FullNghs:      7370.00 ave        7370 max        7370 min
Histogram: 1 0 0 0 0 0 0 0 0 0

Total # of neighbors = 7370
Ave neighs/atom = 83.750000
Neighbor list builds = 6
Dangerous builds = 0
include potential.mod
# NOTE: This script can be modified for different pair styles
# See in.elastic for more info.

# we must undefine any fix ave/* fix before using reset_timestep
if "$(is_defined(fix,avp))" then "unfix avp"
unfix avp
reset_timestep 0

newton off

# Choose potential
# pair_style	sw
# pair_coeff * * Si.sw Si
pair_style	nequip
pair_coeff	* * tob11_l3-deployed.pth Ca H O Si

atom_modify sort 0 0.0
#kspace_style	ewald 1.0e-6# Setup neighbor style

neighbor 2.0 bin
neigh_modify once no every 1 delay 0 check yes



# Setup output

fix avp all ave/time  ${nevery} ${nrepeat} ${nfreq} c_thermo_press mode vector
fix avp all ave/time  10 ${nrepeat} ${nfreq} c_thermo_press mode vector
fix avp all ave/time  10 10 ${nfreq} c_thermo_press mode vector
fix avp all ave/time  10 10 100 c_thermo_press mode vector

#min_style cg
#minimize 1.0e-15 1.0e-15 100000 100000 #设置能量最小化

thermo		${nthermo}
thermo		100
thermo_style custom step temp pe press f_avp[1] f_avp[2] f_avp[3] f_avp[4] f_avp[5] f_avp[6]
WARNING: New thermo_style command, previous thermo_modify settings will be lost (src/output.cpp:689)
thermo_modify norm no

# Setup MD

timestep ${timestep}
timestep 0.001
fix 4 all nve
if "${thermostat} == 1" then    "fix 5 all langevin ${temp} ${temp} ${tdamp} ${seed}"
fix 5 all langevin ${temp} ${temp} ${tdamp} ${seed}
fix 5 all langevin 300 ${temp} ${tdamp} ${seed}
fix 5 all langevin 300 300 ${tdamp} ${seed}
fix 5 all langevin 300 300 0.01 ${seed}
fix 5 all langevin 300 300 0.01 123457


run ${nrun}
run 300
Per MPI rank memory allocation (min/avg/max) = 2.963 | 2.963 | 2.963 Mbytes
Step Temp PotEng Press f_avp[1] f_avp[2] f_avp[3] f_avp[4] f_avp[5] f_avp[6] 
       0    344.15576   -573.74506    15022.749            0            0            0            0            0            0 
     100    321.65315   -574.05487    26059.543    17137.045    48816.452    13325.127    6083.4786    6049.3722   -5092.6239 
     200    305.17392    -574.5166     24589.97    13150.367     42593.01    15093.395    1353.6322    3574.2835   -3459.6646 
     300    277.05032   -573.85303    23485.347    11943.116    39604.191    12681.037    1026.5495   -635.93559   -2799.5304 
Loop time of 36.2676 on 1 procs for 300 steps with 88 atoms

Performance: 0.715 ns/day, 33.581 hours/ns, 8.272 timesteps/s
99.9% CPU use with 1 MPI tasks x 1 OpenMP threads

MPI task timing breakdown:
Section |  min time  |  avg time  |  max time  |%varavg| %total
---------------------------------------------------------------
Pair    | 36.262     | 36.262     | 36.262     |   0.0 | 99.98
Neigh   | 0.00041294 | 0.00041294 | 0.00041294 |   0.0 |  0.00
Comm    | 0.0010505  | 0.0010505  | 0.0010505  |   0.0 |  0.00
Output  | 0.00010324 | 0.00010324 | 0.00010324 |   0.0 |  0.00
Modify  | 0.0030587  | 0.0030587  | 0.0030587  |   0.0 |  0.01
Other   |            | 0.0008831  |            |       |  0.00

Nlocal:        88.0000 ave          88 max          88 min
Histogram: 1 0 0 0 0 0 0 0 0 0
Nghost:        1055.00 ave        1055 max        1055 min
Histogram: 1 0 0 0 0 0 0 0 0 0
Neighs:         0.00000 ave           0 max           0 min
Histogram: 1 0 0 0 0 0 0 0 0 0
FullNghs:      7342.00 ave        7342 max        7342 min
Histogram: 1 0 0 0 0 0 0 0 0 0

Total # of neighbors = 7342
Ave neighs/atom = 83.431818
Neighbor list builds = 1
Dangerous builds = 0

# Obtain new stress tensor

variable pxx1 equal f_avp[1]
variable pyy1 equal f_avp[2]
variable pzz1 equal f_avp[3]
variable pxy1 equal f_avp[4]
variable pxz1 equal f_avp[5]
variable pyz1 equal f_avp[6]

# Compute elastic constant from pressure tensor

variable C1neg equal ${d1}
variable C1neg equal 54.7536337690765
variable C2neg equal ${d2}
variable C2neg equal 136.461554801752
variable C3neg equal ${d3}
variable C3neg equal 18.8279055356783
variable C4neg equal ${d4}
variable C4neg equal 13.9307260836097
variable C5neg equal ${d5}
variable C5neg equal 4.59934118518228
variable C6neg equal ${d6}
variable C6neg equal -22.7290035309094

# Reset box and simulation parameters

clear
OMP_NUM_THREADS environment is not set. Defaulting to 1 thread. (src/comm.cpp:98)
  using 1 OpenMP thread(s) per MPI task
box tilt large
read_restart restart.equil
Reading restart file ...
  restart file = 29 Sep 2021, LAMMPS = 29 Sep 2021
  restoring atom style atomic from restart
  triclinic box = (-0.020057521 0.017408306 -0.12426097) to (6.8237575 6.1674067 22.529707) with tilt (2.6364745 -1.1230599 0.12486621)
  1 by 1 by 1 MPI processor grid
  pair style nequip stores no restart info
  88 atoms
  read_restart CPU = 0.000 seconds
include potential.mod
# NOTE: This script can be modified for different pair styles
# See in.elastic for more info.

# we must undefine any fix ave/* fix before using reset_timestep
if "$(is_defined(fix,avp))" then "unfix avp"
reset_timestep 0

newton off

# Choose potential
# pair_style	sw
# pair_coeff * * Si.sw Si
pair_style	nequip
pair_coeff	* * tob11_l3-deployed.pth Ca H O Si

atom_modify sort 0 0.0
#kspace_style	ewald 1.0e-6# Setup neighbor style

neighbor 2.0 bin
neigh_modify once no every 1 delay 0 check yes



# Setup output

fix avp all ave/time  ${nevery} ${nrepeat} ${nfreq} c_thermo_press mode vector
fix avp all ave/time  10 ${nrepeat} ${nfreq} c_thermo_press mode vector
fix avp all ave/time  10 10 ${nfreq} c_thermo_press mode vector
fix avp all ave/time  10 10 100 c_thermo_press mode vector

#min_style cg
#minimize 1.0e-15 1.0e-15 100000 100000 #设置能量最小化

thermo		${nthermo}
thermo		100
thermo_style custom step temp pe press f_avp[1] f_avp[2] f_avp[3] f_avp[4] f_avp[5] f_avp[6]
thermo_modify norm no

# Setup MD

timestep ${timestep}
timestep 0.001
fix 4 all nve
if "${thermostat} == 1" then    "fix 5 all langevin ${temp} ${temp} ${tdamp} ${seed}"
fix 5 all langevin ${temp} ${temp} ${tdamp} ${seed}
fix 5 all langevin 300 ${temp} ${tdamp} ${seed}
fix 5 all langevin 300 300 ${tdamp} ${seed}
fix 5 all langevin 300 300 0.01 ${seed}
fix 5 all langevin 300 300 0.01 123457



# Positive deformation

variable delta equal ${up}*${len0}
variable delta equal 0.02*${len0}
variable delta equal 0.02*6.14999836103117
variable deltaxy equal ${up}*xy
variable deltaxy equal 0.02*xy
variable deltaxz equal ${up}*xz
variable deltaxz equal 0.02*xz
variable deltayz equal ${up}*yz
variable deltayz equal 0.02*yz
if "${dir} == 1" then    "change_box all x delta 0 ${delta} xy delta ${deltaxy} xz delta ${deltaxz} remap units box"
if "${dir} == 2" then    "change_box all y delta 0 ${delta} yz delta ${deltayz} remap units box"
change_box all y delta 0 ${delta} yz delta ${deltayz} remap units box
change_box all y delta 0 0.122999967220623 yz delta ${deltayz} remap units box
change_box all y delta 0 0.122999967220623 yz delta 0.00249732425116545 remap units box
Changing box ...
  triclinic box = (-0.020057521 0.017408306 -0.12426097) to (6.8237575 6.2904066 22.529707) with tilt (2.6364745 -1.1230599 0.12486621)
  triclinic box = (-0.020057521 0.017408306 -0.12426097) to (6.8237575 6.2904066 22.529707) with tilt (2.6364745 -1.1230599 0.12736354)
if "${dir} == 3" then    "change_box all z delta 0 ${delta} remap units box"
if "${dir} == 4" then    "change_box all yz delta ${delta} remap units box"
if "${dir} == 5" then    "change_box all xz delta ${delta} remap units box"
if "${dir} == 6" then    "change_box all xy delta ${delta} remap units box"

# Run MD

run ${nequil}
run 1000
Neighbor list info ...
  update every 1 steps, delay 0 steps, check yes
  max neighbors/atom: 2000, page size: 100000
  master list distance cutoff = 6
  ghost atom cutoff = 6
  binsize = 3, bins = 4 3 8
  1 neighbor lists, perpetual/occasional/extra = 1 0 0
  (1) pair nequip, perpetual
      attributes: full, newton off
      pair build: full/bin/atomonly
      stencil: full/bin/3d
      bin: standard
Per MPI rank memory allocation (min/avg/max) = 2.962 | 2.962 | 2.962 Mbytes
Step Temp PotEng Press f_avp[1] f_avp[2] f_avp[3] f_avp[4] f_avp[5] f_avp[6] 
       0    283.36043   -573.87067   -17019.299            0            0            0            0            0            0 
     100    314.81097   -574.11334   -4150.7614   -3732.2635   -7609.0431    5526.5008    10631.851    4070.6782   -5312.5582 
     200    284.51761   -574.58844    -5806.298   -8515.6528   -13212.969    501.84355    6726.2892    5344.7476   -6782.9602 
     300    281.17308   -573.98712   -8290.3329   -11349.461   -15564.572   -3176.7487    6843.5524    979.06427   -5964.0651 
     400    304.60611   -574.58008   -11164.264    -10748.52   -12677.497   -1491.8689     11505.05    1846.7612   -5291.1386 
     500     327.2494   -574.07104   -7287.0634   -9866.0348   -4386.2966   -390.25244    8792.8158     1635.588   -3248.7738 
     600    319.31195   -574.67047   -7338.4274   -8531.1966   -11205.149    3136.0394    3006.4122    2652.6162   -6485.8665 
     700    310.74413   -574.65765    -7411.185   -8168.2762   -14592.465   -4192.1338    7979.9656    3813.3156   -6398.6368 
     800    261.56057    -574.1778   -11376.333   -2523.4594   -10592.937    3735.6802    10493.892    1473.9306   -5922.9602 
     900     332.3391   -574.81787   -8987.2693    -6366.101   -12340.299   -6591.9896    9852.1863    5011.0091   -3998.9776 
    1000    342.25861   -573.86346   -15206.567   -5538.1633   -8839.1862    2034.0614    8584.5661    5321.4556    -4631.984 
Loop time of 94.653 on 1 procs for 1000 steps with 88 atoms

Performance: 0.913 ns/day, 26.292 hours/ns, 10.565 timesteps/s
99.9% CPU use with 1 MPI tasks x 1 OpenMP threads

MPI task timing breakdown:
Section |  min time  |  avg time  |  max time  |%varavg| %total
---------------------------------------------------------------
Pair    | 94.633     | 94.633     | 94.633     |   0.0 | 99.98
Neigh   | 0.0028226  | 0.0028226  | 0.0028226  |   0.0 |  0.00
Comm    | 0.0035224  | 0.0035224  | 0.0035224  |   0.0 |  0.00
Output  | 0.00034928 | 0.00034928 | 0.00034928 |   0.0 |  0.00
Modify  | 0.010071   | 0.010071   | 0.010071   |   0.0 |  0.01
Other   |            | 0.002766   |            |       |  0.00

Nlocal:        88.0000 ave          88 max          88 min
Histogram: 1 0 0 0 0 0 0 0 0 0
Nghost:        1022.00 ave        1022 max        1022 min
Histogram: 1 0 0 0 0 0 0 0 0 0
Neighs:         0.00000 ave           0 max           0 min
Histogram: 1 0 0 0 0 0 0 0 0 0
FullNghs:      7032.00 ave        7032 max        7032 min
Histogram: 1 0 0 0 0 0 0 0 0 0

Total # of neighbors = 7032
Ave neighs/atom = 79.909091
Neighbor list builds = 6
Dangerous builds = 0
include potential.mod
# NOTE: This script can be modified for different pair styles
# See in.elastic for more info.

# we must undefine any fix ave/* fix before using reset_timestep
if "$(is_defined(fix,avp))" then "unfix avp"
unfix avp
reset_timestep 0

newton off

# Choose potential
# pair_style	sw
# pair_coeff * * Si.sw Si
pair_style	nequip
pair_coeff	* * tob11_l3-deployed.pth Ca H O Si

atom_modify sort 0 0.0
#kspace_style	ewald 1.0e-6# Setup neighbor style

neighbor 2.0 bin
neigh_modify once no every 1 delay 0 check yes



# Setup output

fix avp all ave/time  ${nevery} ${nrepeat} ${nfreq} c_thermo_press mode vector
fix avp all ave/time  10 ${nrepeat} ${nfreq} c_thermo_press mode vector
fix avp all ave/time  10 10 ${nfreq} c_thermo_press mode vector
fix avp all ave/time  10 10 100 c_thermo_press mode vector

#min_style cg
#minimize 1.0e-15 1.0e-15 100000 100000 #设置能量最小化

thermo		${nthermo}
thermo		100
thermo_style custom step temp pe press f_avp[1] f_avp[2] f_avp[3] f_avp[4] f_avp[5] f_avp[6]
WARNING: New thermo_style command, previous thermo_modify settings will be lost (src/output.cpp:689)
thermo_modify norm no

# Setup MD

timestep ${timestep}
timestep 0.001
fix 4 all nve
if "${thermostat} == 1" then    "fix 5 all langevin ${temp} ${temp} ${tdamp} ${seed}"
fix 5 all langevin ${temp} ${temp} ${tdamp} ${seed}
fix 5 all langevin 300 ${temp} ${tdamp} ${seed}
fix 5 all langevin 300 300 ${tdamp} ${seed}
fix 5 all langevin 300 300 0.01 ${seed}
fix 5 all langevin 300 300 0.01 123457


run ${nrun}
run 300
Per MPI rank memory allocation (min/avg/max) = 2.962 | 2.962 | 2.962 Mbytes
Step Temp PotEng Press f_avp[1] f_avp[2] f_avp[3] f_avp[4] f_avp[5] f_avp[6] 
       0    342.25861   -573.86334   -15206.564            0            0            0            0            0            0 
     100    314.87804   -574.05859    -5108.031   -5635.5334   -4010.6013   -2980.5311    10167.138    6563.6793   -6794.4971 
     200    293.68094   -574.65479   -6241.0301   -7933.0767    -12228.18   -1553.3601    5888.3794    4456.3559   -6466.4906 
     300    288.12775   -573.95966   -6856.1576   -8799.9217   -15954.037   -4261.5248    4861.1001    675.94545   -6630.4821 
Loop time of 29.1984 on 1 procs for 300 steps with 88 atoms

Performance: 0.888 ns/day, 27.036 hours/ns, 10.275 timesteps/s
99.9% CPU use with 1 MPI tasks x 1 OpenMP threads

MPI task timing breakdown:
Section |  min time  |  avg time  |  max time  |%varavg| %total
---------------------------------------------------------------
Pair    | 29.193     | 29.193     | 29.193     |   0.0 | 99.98
Neigh   | 0.0004046  | 0.0004046  | 0.0004046  |   0.0 |  0.00
Comm    | 0.0010533  | 0.0010533  | 0.0010533  |   0.0 |  0.00
Output  | 0.00012302 | 0.00012302 | 0.00012302 |   0.0 |  0.00
Modify  | 0.0030208  | 0.0030208  | 0.0030208  |   0.0 |  0.01
Other   |            | 0.0008698  |            |       |  0.00

Nlocal:        88.0000 ave          88 max          88 min
Histogram: 1 0 0 0 0 0 0 0 0 0
Nghost:        1013.00 ave        1013 max        1013 min
Histogram: 1 0 0 0 0 0 0 0 0 0
Neighs:         0.00000 ave           0 max           0 min
Histogram: 1 0 0 0 0 0 0 0 0 0
FullNghs:      7040.00 ave        7040 max        7040 min
Histogram: 1 0 0 0 0 0 0 0 0 0

Total # of neighbors = 7040
Ave neighs/atom = 80.000000
Neighbor list builds = 1
Dangerous builds = 0

# Obtain new stress tensor

variable pxx1 equal f_avp[1]
variable pyy1 equal f_avp[2]
variable pzz1 equal f_avp[3]
variable pxy1 equal f_avp[4]
variable pxz1 equal f_avp[5]
variable pyz1 equal f_avp[6]

# Compute elastic constant from pressure tensor

variable C1pos equal ${d1}
variable C1pos equal 48.9615551626355
variable C2pos equal ${d2}
variable C2pos equal 141.329587109468
variable C3pos equal ${d3}
variable C3pos equal 65.8849046103807
variable C4pos equal ${d4}
variable C4pos equal 5.22403232488172
variable C5pos equal ${d5}
variable C5pos equal -11.158746360716
variable C6pos equal ${d6}
variable C6pos equal 3.55625034124016

# Combine positive and negative

variable C1${dir} equal 0.5*(${C1neg}+${C1pos})
variable C12 equal 0.5*(${C1neg}+${C1pos})
[...]
Comm    | 0.0010407  | 0.0010407  | 0.0010407  |   0.0 |  0.00
Output  | 0.0001049  | 0.0001049  | 0.0001049  |   0.0 |  0.00
Modify  | 0.0030794  | 0.0030794  | 0.0030794  |   0.0 |  0.01
Other   |            | 0.0008755  |            |       |  0.00

Nlocal:        88.0000 ave          88 max          88 min
Histogram: 1 0 0 0 0 0 0 0 0 0
Nghost:        1028.00 ave        1028 max        1028 min
Histogram: 1 0 0 0 0 0 0 0 0 0
Neighs:         0.00000 ave           0 max           0 min
Histogram: 1 0 0 0 0 0 0 0 0 0
FullNghs:      7204.00 ave        7204 max        7204 min
Histogram: 1 0 0 0 0 0 0 0 0 0

Total # of neighbors = 7204
Ave neighs/atom = 81.863636
Neighbor list builds = 2
Dangerous builds = 0

# Obtain new stress tensor

variable pxx1 equal f_avp[1]
variable pyy1 equal f_avp[2]
variable pzz1 equal f_avp[3]
variable pxy1 equal f_avp[4]
variable pxz1 equal f_avp[5]
variable pyz1 equal f_avp[6]

# Compute elastic constant from pressure tensor

variable C1neg equal ${d1}
variable C1neg equal -2.60277424250359
variable C2neg equal ${d2}
variable C2neg equal -11.217584127943
variable C3neg equal ${d3}
variable C3neg equal -21.2915198839514
variable C4neg equal ${d4}
variable C4neg equal 1.68969068694081
variable C5neg equal ${d5}
variable C5neg equal 10.281176591961
variable C6neg equal ${d6}
variable C6neg equal 25.3958065513304

# Reset box and simulation parameters

clear
OMP_NUM_THREADS environment is not set. Defaulting to 1 thread. (src/comm.cpp:98)
  using 1 OpenMP thread(s) per MPI task
box tilt large
read_restart restart.equil
Reading restart file ...
  restart file = 29 Sep 2021, LAMMPS = 29 Sep 2021
  restoring atom style atomic from restart
  triclinic box = (-0.020057521 0.017408306 -0.12426097) to (6.8237575 6.1674067 22.529707) with tilt (2.6364745 -1.1230599 0.12486621)
  1 by 1 by 1 MPI processor grid
  pair style nequip stores no restart info
  88 atoms
  read_restart CPU = 0.000 seconds
include potential.mod
# NOTE: This script can be modified for different pair styles
# See in.elastic for more info.

# we must undefine any fix ave/* fix before using reset_timestep
if "$(is_defined(fix,avp))" then "unfix avp"
reset_timestep 0

newton off

# Choose potential
# pair_style	sw
# pair_coeff * * Si.sw Si
pair_style	nequip
pair_coeff	* * tob11_l3-deployed.pth Ca H O Si

atom_modify sort 0 0.0
#kspace_style	ewald 1.0e-6# Setup neighbor style

neighbor 2.0 bin
neigh_modify once no every 1 delay 0 check yes



# Setup output

fix avp all ave/time  ${nevery} ${nrepeat} ${nfreq} c_thermo_press mode vector
fix avp all ave/time  10 ${nrepeat} ${nfreq} c_thermo_press mode vector
fix avp all ave/time  10 10 ${nfreq} c_thermo_press mode vector
fix avp all ave/time  10 10 100 c_thermo_press mode vector

#min_style cg
#minimize 1.0e-15 1.0e-15 100000 100000 #设置能量最小化

thermo		${nthermo}
thermo		100
thermo_style custom step temp pe press f_avp[1] f_avp[2] f_avp[3] f_avp[4] f_avp[5] f_avp[6]
thermo_modify norm no

# Setup MD

timestep ${timestep}
timestep 0.001
fix 4 all nve
if "${thermostat} == 1" then    "fix 5 all langevin ${temp} ${temp} ${tdamp} ${seed}"
fix 5 all langevin ${temp} ${temp} ${tdamp} ${seed}
fix 5 all langevin 300 ${temp} ${tdamp} ${seed}
fix 5 all langevin 300 300 ${tdamp} ${seed}
fix 5 all langevin 300 300 0.01 ${seed}
fix 5 all langevin 300 300 0.01 123457



# Positive deformation

variable delta equal ${up}*${len0}
variable delta equal 0.02*${len0}
variable delta equal 0.02*6.14999836103117
variable deltaxy equal ${up}*xy
variable deltaxy equal 0.02*xy
variable deltaxz equal ${up}*xz
variable deltaxz equal 0.02*xz
variable deltayz equal ${up}*yz
variable deltayz equal 0.02*yz
if "${dir} == 1" then    "change_box all x delta 0 ${delta} xy delta ${deltaxy} xz delta ${deltaxz} remap units box"
if "${dir} == 2" then    "change_box all y delta 0 ${delta} yz delta ${deltayz} remap units box"
if "${dir} == 3" then    "change_box all z delta 0 ${delta} remap units box"
if "${dir} == 4" then    "change_box all yz delta ${delta} remap units box"
if "${dir} == 5" then    "change_box all xz delta ${delta} remap units box"
if "${dir} == 6" then    "change_box all xy delta ${delta} remap units box"
change_box all xy delta ${delta} remap units box
change_box all xy delta 0.122999967220623 remap units box
Changing box ...
  triclinic box = (-0.020057521 0.017408306 -0.12426097) to (6.8237575 6.1674067 22.529707) with tilt (2.7594745 -1.1230599 0.12486621)

# Run MD

run ${nequil}
run 1000
Neighbor list info ...
  update every 1 steps, delay 0 steps, check yes
  max neighbors/atom: 2000, page size: 100000
  master list distance cutoff = 6
  ghost atom cutoff = 6
  binsize = 3, bins = 4 3 8
  1 neighbor lists, perpetual/occasional/extra = 1 0 0
  (1) pair nequip, perpetual
      attributes: full, newton off
      pair build: full/bin/atomonly
      stencil: full/bin/3d
      bin: standard
Per MPI rank memory allocation (min/avg/max) = 2.963 | 2.963 | 2.963 Mbytes
Step Temp PotEng Press f_avp[1] f_avp[2] f_avp[3] f_avp[4] f_avp[5] f_avp[6] 
       0    283.36043   -574.06683    8546.1917            0            0            0            0            0            0 
     100    317.90331   -574.27692    13959.005    9442.9945    24082.938    19068.265   -2098.9332    3671.9976   -4094.0554 
     200    286.14126   -574.68774    12389.693    3762.8464    17138.169    13518.152   -5245.5104    4142.2577   -5212.7006 
     300    283.58592   -574.07886    8824.0335    115.98342    14274.473    8469.3866   -4394.5418    203.55819   -4448.6707 
     400    305.22539   -574.65668     5358.129    495.79556    15933.692    9319.3441    560.08135     965.7188   -3745.6859 
     500    327.17328   -574.19092     9297.913    973.73191    22833.926    10531.526   -2650.3227    681.54908   -1839.8393 
     600    318.35806   -574.79163    9361.7822    3072.1125    15782.504    13884.195   -8467.6327    1477.3442   -5115.5816 
     700    310.17517     -574.776    9817.7808    3275.4137    13412.017    5659.1493   -2967.8641    2815.5218   -5225.3589 
     800    262.81917   -574.29376    5497.5613    8260.4056    18701.852    14134.207     49.99288    741.13219   -5167.0217 
     900    329.90838   -574.90784    7250.7016     4129.378    16106.313     4334.449   -882.08158    4302.4435   -3227.2345 
    1000    339.80813   -573.95831    567.66171    5161.5179    19866.186    13086.518   -2007.1622    4775.0606    -3430.028 
Loop time of 96.796 on 1 procs for 1000 steps with 88 atoms

Performance: 0.893 ns/day, 26.888 hours/ns, 10.331 timesteps/s
99.9% CPU use with 1 MPI tasks x 1 OpenMP threads

MPI task timing breakdown:
Section |  min time  |  avg time  |  max time  |%varavg| %total
---------------------------------------------------------------
Pair    | 96.776     | 96.776     | 96.776     |   0.0 | 99.98
Neigh   | 0.002604   | 0.002604   | 0.002604   |   0.0 |  0.00
Comm    | 0.0034635  | 0.0034635  | 0.0034635  |   0.0 |  0.00
Output  | 0.00041723 | 0.00041723 | 0.00041723 |   0.0 |  0.00
Modify  | 0.010123   | 0.010123   | 0.010123   |   0.0 |  0.01
Other   |            | 0.002908   |            |       |  0.00

Nlocal:        88.0000 ave          88 max          88 min
Histogram: 1 0 0 0 0 0 0 0 0 0
Nghost:        1037.00 ave        1037 max        1037 min
Histogram: 1 0 0 0 0 0 0 0 0 0
Neighs:         0.00000 ave           0 max           0 min
Histogram: 1 0 0 0 0 0 0 0 0 0
FullNghs:      7220.00 ave        7220 max        7220 min
Histogram: 1 0 0 0 0 0 0 0 0 0

Total # of neighbors = 7220
Ave neighs/atom = 82.045455
Neighbor list builds = 6
Dangerous builds = 0
include potential.mod
# NOTE: This script can be modified for different pair styles
# See in.elastic for more info.

# we must undefine any fix ave/* fix before using reset_timestep
if "$(is_defined(fix,avp))" then "unfix avp"
unfix avp
reset_timestep 0

newton off

# Choose potential
# pair_style	sw
# pair_coeff * * Si.sw Si
pair_style	nequip
pair_coeff	* * tob11_l3-deployed.pth Ca H O Si

atom_modify sort 0 0.0
#kspace_style	ewald 1.0e-6# Setup neighbor style

neighbor 2.0 bin
neigh_modify once no every 1 delay 0 check yes



# Setup output

fix avp all ave/time  ${nevery} ${nrepeat} ${nfreq} c_thermo_press mode vector
fix avp all ave/time  10 ${nrepeat} ${nfreq} c_thermo_press mode vector
fix avp all ave/time  10 10 ${nfreq} c_thermo_press mode vector
fix avp all ave/time  10 10 100 c_thermo_press mode vector

#min_style cg
#minimize 1.0e-15 1.0e-15 100000 100000 #设置能量最小化

thermo		${nthermo}
thermo		100
thermo_style custom step temp pe press f_avp[1] f_avp[2] f_avp[3] f_avp[4] f_avp[5] f_avp[6]
WARNING: New thermo_style command, previous thermo_modify settings will be lost (src/output.cpp:689)
thermo_modify norm no

# Setup MD

timestep ${timestep}
timestep 0.001
fix 4 all nve
if "${thermostat} == 1" then    "fix 5 all langevin ${temp} ${temp} ${tdamp} ${seed}"
fix 5 all langevin ${temp} ${temp} ${tdamp} ${seed}
fix 5 all langevin 300 ${temp} ${tdamp} ${seed}
fix 5 all langevin 300 300 ${tdamp} ${seed}
fix 5 all langevin 300 300 0.01 ${seed}
fix 5 all langevin 300 300 0.01 123457


run ${nrun}
run 300
Per MPI rank memory allocation (min/avg/max) = 2.963 | 2.963 | 2.963 Mbytes
Step Temp PotEng Press f_avp[1] f_avp[2] f_avp[3] f_avp[4] f_avp[5] f_avp[6] 
       0    339.80813   -573.95831    567.56162            0            0            0            0            0            0 
     100    315.87559   -574.17377    11080.504    5818.6628    23661.527    7201.5704   -100.28626    6460.3202    -5923.805 
     200    297.01651   -574.84723    10540.268    3141.4471    16490.948    9137.1091   -4995.4603    3506.6972   -4913.8372 
     300    285.20343   -574.08386    9550.7874    2327.6286    12863.031    5943.5045    -5812.202   -117.48704   -4588.7081 
Loop time of 33.8088 on 1 procs for 300 steps with 88 atoms

Performance: 0.767 ns/day, 31.304 hours/ns, 8.873 timesteps/s
99.8% CPU use with 1 MPI tasks x 1 OpenMP threads

MPI task timing breakdown:
Section |  min time  |  avg time  |  max time  |%varavg| %total
---------------------------------------------------------------
Pair    | 33.803     | 33.803     | 33.803     |   0.0 | 99.98
Neigh   | 0.00043488 | 0.00043488 | 0.00043488 |   0.0 |  0.00
Comm    | 0.0010576  | 0.0010576  | 0.0010576  |   0.0 |  0.00
Output  | 0.00010967 | 0.00010967 | 0.00010967 |   0.0 |  0.00
Modify  | 0.0030937  | 0.0030937  | 0.0030937  |   0.0 |  0.01
Other   |            | 0.0008793  |            |       |  0.00

Nlocal:        88.0000 ave          88 max          88 min
Histogram: 1 0 0 0 0 0 0 0 0 0
Nghost:        1034.00 ave        1034 max        1034 min
Histogram: 1 0 0 0 0 0 0 0 0 0
Neighs:         0.00000 ave           0 max           0 min
Histogram: 1 0 0 0 0 0 0 0 0 0
FullNghs:      7226.00 ave        7226 max        7226 min
Histogram: 1 0 0 0 0 0 0 0 0 0

Total # of neighbors = 7226
Ave neighs/atom = 82.113636
Neighbor list builds = 1
Dangerous builds = 0

# Obtain new stress tensor

variable pxx1 equal f_avp[1]
variable pyy1 equal f_avp[2]
variable pzz1 equal f_avp[3]
variable pxy1 equal f_avp[4]
variable pxz1 equal f_avp[5]
variable pyz1 equal f_avp[6]

# Compute elastic constant from pressure tensor

variable C1pos equal ${d1}
variable C1pos equal -6.67619626257691
variable C2pos equal ${d2}
variable C2pos equal -2.75575332861051
variable C3pos equal ${d3}
variable C3pos equal 14.8597581384417
variable C4pos equal ${d4}
variable C4pos equal -4.98483729027912
variable C5pos equal ${d5}
variable C5pos equal -7.19158390517558
variable C6pos equal ${d6}
variable C6pos equal 56.922760991703

# Combine positive and negative

variable C1${dir} equal 0.5*(${C1neg}+${C1pos})
variable C16 equal 0.5*(${C1neg}+${C1pos})
variable C16 equal 0.5*(-2.60277424250359+${C1pos})
variable C16 equal 0.5*(-2.60277424250359+-6.67619626257691)
variable C2${dir} equal 0.5*(${C2neg}+${C2pos})
variable C26 equal 0.5*(${C2neg}+${C2pos})
variable C26 equal 0.5*(-11.217584127943+${C2pos})
variable C26 equal 0.5*(-11.217584127943+-2.75575332861051)
variable C3${dir} equal 0.5*(${C3neg}+${C3pos})
variable C36 equal 0.5*(${C3neg}+${C3pos})
variable C36 equal 0.5*(-21.2915198839514+${C3pos})
variable C36 equal 0.5*(-21.2915198839514+14.8597581384417)
variable C4${dir} equal 0.5*(${C4neg}+${C4pos})
variable C46 equal 0.5*(${C4neg}+${C4pos})
variable C46 equal 0.5*(1.68969068694081+${C4pos})
variable C46 equal 0.5*(1.68969068694081+-4.98483729027912)
variable C5${dir} equal 0.5*(${C5neg}+${C5pos})
variable C56 equal 0.5*(${C5neg}+${C5pos})
variable C56 equal 0.5*(10.281176591961+${C5pos})
variable C56 equal 0.5*(10.281176591961+-7.19158390517558)
variable C6${dir} equal 0.5*(${C6neg}+${C6pos})
variable C66 equal 0.5*(${C6neg}+${C6pos})
variable C66 equal 0.5*(25.3958065513304+${C6pos})
variable C66 equal 0.5*(25.3958065513304+56.922760991703)

# Delete dir to make sure it is not reused

variable dir delete

# Output final values

variable C11all equal ${C11}
variable C11all equal 102.789232151015
variable C22all equal ${C22}
variable C22all equal 138.89557095561
variable C33all equal ${C33}
variable C33all equal 114.792838978637

variable C12all equal 0.5*(${C12}+${C21})
variable C12all equal 0.5*(51.857594465856+${C21})
variable C12all equal 0.5*(51.857594465856+55.2170445973106)
variable C13all equal 0.5*(${C13}+${C31})
variable C13all equal 0.5*(34.8894155379911+${C31})
variable C13all equal 0.5*(34.8894155379911+30.9811865255277)
variable C23all equal 0.5*(${C23}+${C32})
variable C23all equal 0.5*(44.3533637046153+${C32})
variable C23all equal 0.5*(44.3533637046153+42.3564050730295)

variable C44all equal ${C44}
variable C44all equal 25.9774331457952
variable C55all equal ${C55}
variable C55all equal 19.0366325120209
variable C66all equal ${C66}
variable C66all equal 41.1592837715167

variable C14all equal 0.5*(${C14}+${C41})
variable C14all equal 0.5*(6.2873183326344+${C41})
variable C14all equal 0.5*(6.2873183326344+4.35622916297708)
variable C15all equal 0.5*(${C15}+${C51})
variable C15all equal 0.5*(0.308784530069792+${C51})
variable C15all equal 0.5*(0.308784530069792+0.0613353863784347)
variable C16all equal 0.5*(${C16}+${C61})
variable C16all equal 0.5*(-4.63948525254025+${C61})
variable C16all equal 0.5*(-4.63948525254025+-2.36665584374335)

variable C24all equal 0.5*(${C24}+${C42})
variable C24all equal 0.5*(9.71111985471845+${C42})
variable C24all equal 0.5*(9.71111985471845+9.57737920424571)
variable C25all equal 0.5*(${C25}+${C52})
variable C25all equal 0.5*(0.04705074981075+${C52})
variable C25all equal 0.5*(0.04705074981075+-3.27970258776686)
variable C26all equal 0.5*(${C26}+${C62})
variable C26all equal 0.5*(-6.98666872827676+${C62})
variable C26all equal 0.5*(-6.98666872827676+-9.58637659483462)

variable C34all equal 0.5*(${C34}+${C43})
variable C34all equal 0.5*(0.356968881320601+${C43})
variable C34all equal 0.5*(0.356968881320601+-1.4966454902475)
variable C35all equal 0.5*(${C35}+${C53})
variable C35all equal 0.5*(-0.0803089650898485+${C53})
variable C35all equal 0.5*(-0.0803089650898485+-0.937289920571865)
variable C36all equal 0.5*(${C36}+${C63})
variable C36all equal 0.5*(-3.21588087275485+${C63})
variable C36all equal 0.5*(-3.21588087275485+-8.0757158701414)

variable C45all equal 0.5*(${C45}+${C54})
variable C45all equal 0.5*(-4.76835652093127+${C54})
variable C45all equal 0.5*(-4.76835652093127+-8.74224754077117)
variable C46all equal 0.5*(${C46}+${C64})
variable C46all equal 0.5*(-1.64757330166915+${C64})
variable C46all equal 0.5*(-1.64757330166915+0.58283508319035)
variable C56all equal 0.5*(${C56}+${C65})
variable C56all equal 0.5*(1.54479634339271+${C65})
variable C56all equal 0.5*(1.54479634339271+1.2278712569409)


print "========================================="
=========================================
print "Components of the Elastic Constant Tensor"
Components of the Elastic Constant Tensor
print "========================================="
=========================================

print "Elastic Constant C11all = ${C11all} ${cunits}"
Elastic Constant C11all = 102.789232151015 GPa
print "Elastic Constant C22all = ${C22all} ${cunits}"
Elastic Constant C22all = 138.89557095561 GPa
print "Elastic Constant C33all = ${C33all} ${cunits}"
Elastic Constant C33all = 114.792838978637 GPa

print "Elastic Constant C12all = ${C12all} ${cunits}"
Elastic Constant C12all = 53.5373195315833 GPa
print "Elastic Constant C13all = ${C13all} ${cunits}"
Elastic Constant C13all = 32.9353010317594 GPa
print "Elastic Constant C23all = ${C23all} ${cunits}"
Elastic Constant C23all = 43.3548843888224 GPa

print "Elastic Constant C44all = ${C44all} ${cunits}"
Elastic Constant C44all = 25.9774331457952 GPa
print "Elastic Constant C55all = ${C55all} ${cunits}"
Elastic Constant C55all = 19.0366325120209 GPa
print "Elastic Constant C66all = ${C66all} ${cunits}"
Elastic Constant C66all = 41.1592837715167 GPa

print "Elastic Constant C14all = ${C14all} ${cunits}"
Elastic Constant C14all = 5.32177374780574 GPa
print "Elastic Constant C15all = ${C15all} ${cunits}"
Elastic Constant C15all = 0.185059958224113 GPa
print "Elastic Constant C16all = ${C16all} ${cunits}"
Elastic Constant C16all = -3.5030705481418 GPa

print "Elastic Constant C24all = ${C24all} ${cunits}"
Elastic Constant C24all = 9.64424952948208 GPa
print "Elastic Constant C25all = ${C25all} ${cunits}"
Elastic Constant C25all = -1.61632591897805 GPa
print "Elastic Constant C26all = ${C26all} ${cunits}"
Elastic Constant C26all = -8.28652266155569 GPa

print "Elastic Constant C34all = ${C34all} ${cunits}"
Elastic Constant C34all = -0.569838304463449 GPa
print "Elastic Constant C35all = ${C35all} ${cunits}"
Elastic Constant C35all = -0.508799442830857 GPa
print "Elastic Constant C36all = ${C36all} ${cunits}"
Elastic Constant C36all = -5.64579837144812 GPa

print "Elastic Constant C45all = ${C45all} ${cunits}"
Elastic Constant C45all = -6.75530203085122 GPa
print "Elastic Constant C46all = ${C46all} ${cunits}"
Elastic Constant C46all = -0.5323691092394 GPa
print "Elastic Constant C56all = ${C56all} ${cunits}"
Elastic Constant C56all = 1.38633380016681 GPa

print " "
 
print "Cij tensor matrix"
Cij tensor matrix
print " "
 
print "${C11all}  ${C12all}  ${C13all}  ${C14all}  ${C15all}  ${C16all}"
102.789232151015  53.5373195315833  32.9353010317594  5.32177374780574  0.185059958224113  -3.5030705481418
print "${C12all}  ${C22all}  ${C23all}  ${C24all}  ${C25all}  ${C26all}"
53.5373195315833  138.89557095561  43.3548843888224  9.64424952948208  -1.61632591897805  -8.28652266155569
print "${C13all}  ${C23all}  ${C33all}  ${C34all}  ${C35all}  ${C36all}"
32.9353010317594  43.3548843888224  114.792838978637  -0.569838304463449  -0.508799442830857  -5.64579837144812
print "${C14all}  ${C24all}  ${C34all}  ${C44all}  ${C45all}  ${C46all}"
5.32177374780574  9.64424952948208  -0.569838304463449  25.9774331457952  -6.75530203085122  -0.5323691092394
print "${C15all}  ${C25all}  ${C35all}  ${C45all}  ${C55all}  ${C56all}"
0.185059958224113  -1.61632591897805  -0.508799442830857  -6.75530203085122  19.0366325120209  1.38633380016681
print "${C16all}  ${C26all}  ${C36all}  ${C46all}  ${C56all}  ${C66all}"
-3.5030705481418  -8.28652266155569  -5.64579837144812  -0.5323691092394  1.38633380016681  41.1592837715167

print "${C11all}  ${C12all}  ${C13all}  ${C14all}  ${C15all}  ${C16all}" file Cij.dat screen no
print "${C12all}  ${C22all}  ${C23all}  ${C24all}  ${C25all}  ${C26all}" append Cij.dat screen no
print "${C13all}  ${C23all}  ${C33all}  ${C34all}  ${C35all}  ${C36all}" append Cij.dat screen no
print "${C14all}  ${C24all}  ${C34all}  ${C44all}  ${C45all}  ${C46all}" append Cij.dat screen no
print "${C15all}  ${C25all}  ${C35all}  ${C45all}  ${C55all}  ${C56all}" append Cij.dat screen no
print "${C16all}  ${C26all}  ${C36all}  ${C46all}  ${C56all}  ${C66all}" append Cij.dat screen no

write_restart restart2
System init for write_restart ...
Total wall time: 1:22:04
